 Entering Gaussian System, Link 0=g03
 Input=C60_xp32.com
 Output=C60_xp32.log
 Initial command:
 /apps/gaussian/g09_c01/g09/l1.exe /tmp/pbs.2992107.cx1b/Gau-119404.inp -scrdir=/tmp/pbs.2992107.cx1b/
 Entering Link 1 = /apps/gaussian/g09_c01/g09/l1.exe PID=    119412.
  
 Copyright (c) 1988,1990,1992,1993,1995,1998,2003,2009,2011,
            Gaussian, Inc.  All Rights Reserved.
  
 This is part of the Gaussian(R) 09 program.  It is based on
 the Gaussian(R) 03 system (copyright 2003, Gaussian, Inc.),
 the Gaussian(R) 98 system (copyright 1998, Gaussian, Inc.),
 the Gaussian(R) 94 system (copyright 1995, Gaussian, Inc.),
 the Gaussian 92(TM) system (copyright 1992, Gaussian, Inc.),
 the Gaussian 90(TM) system (copyright 1990, Gaussian, Inc.),
 the Gaussian 88(TM) system (copyright 1988, Gaussian, Inc.),
 the Gaussian 86(TM) system (copyright 1986, Carnegie Mellon
 University), and the Gaussian 82(TM) system (copyright 1983,
 Carnegie Mellon University). Gaussian is a federally registered
 trademark of Gaussian, Inc.
  
 This software contains proprietary and confidential information,
 including trade secrets, belonging to Gaussian, Inc.
  
 This software is provided under written license and may be
 used, copied, transmitted, or stored only in accord with that
 written license.
  
 The following legend is applicable only to US Government
 contracts under FAR:
  
                    RESTRICTED RIGHTS LEGEND
  
 Use, reproduction and disclosure by the US Government is
 subject to restrictions as set forth in subparagraphs (a)
 and (c) of the Commercial Computer Software - Restricted
 Rights clause in FAR 52.227-19.
  
 Gaussian, Inc.
 340 Quinnipiac St., Bldg. 40, Wallingford CT 06492
  
  
 ---------------------------------------------------------------
 Warning -- This program may not be used in any manner that
 competes with the business of Gaussian, Inc. or will provide
 assistance to any competitor of Gaussian, Inc.  The licensee
 of this program is prohibited from giving any competitor of
 Gaussian, Inc. access to this program.  By using this program,
 the user acknowledges that Gaussian, Inc. is engaged in the
 business of creating and licensing software in the field of
 computational chemistry and represents and warrants to the
 licensee that it is not a competitor of Gaussian, Inc. and that
 it will not use this program in any manner prohibited above.
 ---------------------------------------------------------------
  

 Cite this work as:
 Gaussian 09, Revision C.01,
 M. J. Frisch, G. W. Trucks, H. B. Schlegel, G. E. Scuseria, 
 M. A. Robb, J. R. Cheeseman, G. Scalmani, V. Barone, B. Mennucci, 
 G. A. Petersson, H. Nakatsuji, M. Caricato, X. Li, H. P. Hratchian, 
 A. F. Izmaylov, J. Bloino, G. Zheng, J. L. Sonnenberg, M. Hada, 
 M. Ehara, K. Toyota, R. Fukuda, J. Hasegawa, M. Ishida, T. Nakajima, 
 Y. Honda, O. Kitao, H. Nakai, T. Vreven, J. A. Montgomery, Jr., 
 J. E. Peralta, F. Ogliaro, M. Bearpark, J. J. Heyd, E. Brothers, 
 K. N. Kudin, V. N. Staroverov, T. Keith, R. Kobayashi, J. Normand, 
 K. Raghavachari, A. Rendell, J. C. Burant, S. S. Iyengar, J. Tomasi, 
 M. Cossi, N. Rega, J. M. Millam, M. Klene, J. E. Knox, J. B. Cross, 
 V. Bakken, C. Adamo, J. Jaramillo, R. Gomperts, R. E. Stratmann, 
 O. Yazyev, A. J. Austin, R. Cammi, C. Pomelli, J. W. Ochterski, 
 R. L. Martin, K. Morokuma, V. G. Zakrzewski, G. A. Voth, 
 P. Salvador, J. J. Dannenberg, S. Dapprich, A. D. Daniels, 
 O. Farkas, J. B. Foresman, J. V. Ortiz, J. Cioslowski, 
 and D. J. Fox, Gaussian, Inc., Wallingford CT, 2010.
 
 ******************************************
 Gaussian 09:  EM64L-G09RevC.01 23-Sep-2011
                 4-Nov-2016 
 ******************************************
 %Mem=16Gb
 %nprocshared=20
 Will use up to   20 processors via shared memory.
 --------------------------------------------
 #p opt scf=verytight b3lyp/6-31g* Field=x+32
 --------------------------------------------
 1/14=-1,18=20,19=15,26=3,38=1/1,3;
 2/9=110,12=2,17=6,18=5,40=1/2;
 3/5=1,6=6,7=1,11=2,14=1,15=32,16=1,25=1,30=1,71=1,74=-5/1,2,3;
 4//1;
 5/5=2,17=3,38=5/2;
 6/7=2,8=2,9=2,10=2,28=1/1;
 7//1,2,3,16;
 1/14=-1,18=20,19=15/3(2);
 2/9=110/2;
 99//99;
 2/9=110/2;
 3/5=1,6=6,7=1,11=2,14=1,15=32,16=1,25=1,30=1,71=1,74=-5/1,2,3;
 4/5=5,16=3/1;
 5/5=2,17=3,38=5/2;
 7//1,2,3,16;
 1/14=-1,18=20,19=15/3(-5);
 2/9=110/2;
 6/7=2,8=2,9=2,10=2,19=2,28=1/1;
 99/9=1/99;
 Leave Link    1 at Fri Nov  4 08:45:07 2016, MaxMem= 2147483648 cpu:       0.6
 (Enter /apps/gaussian/g09_c01/g09/l101.exe)
 ---------------------------------------------------------
 Ain't no field like an E-field, with a bit of relaxation.
 ---------------------------------------------------------
 Charge =  0 Multiplicity = 1
 Symbolic Z-Matrix:
 C                    -2.54114  -1.04781  -2.24771 
 C                    -3.24592  -0.16495  -1.42843 
 C                    -3.51268  -0.51453  -0.043 
 C                    -3.06275  -1.73266   0.468 
 C                    -2.32812  -2.65221  -0.38477 
 C                    -2.07262  -2.31651  -1.71484 
 C                    -0.77004  -2.59433  -2.29673 
 C                    -0.43309  -1.49764  -3.18874 
 C                    -1.5274   -0.5417   -3.15835 
 C                    -1.25958   0.82657  -3.21357 
 C                    -1.99431   1.74593  -2.3608 
 C                    -2.96764   1.26056  -1.48661 
 C                    -3.06202   1.79199  -0.13697 
 C                    -3.3985    0.69493   0.75533 
 C                    -2.83976   0.63773   2.03273 
 C                    -2.37164  -0.63127   2.56469 
 C                    -2.48094  -1.79227   1.7985 
 C                    -1.38679  -2.74886   1.76815 
 C                    -1.2921   -3.28031   0.4185 
 C                    -0.04163  -3.54725  -0.14055 
 C                     0.2246   -3.19721  -1.52583 
 C                     1.59763  -2.72824  -1.61458 
 C                     1.92084  -1.67509  -2.47089 
 C                     0.88486  -1.04733  -3.27428 
 C                     1.16366   0.37796  -3.33248 
 C                     0.11303   1.29589  -3.3029 
 C                     0.22692   2.50531  -2.5048 
 C                    -1.07556   2.78324  -1.92231 
 C                    -1.16638   3.29371  -0.6269 
 C                    -2.18004   2.78826   0.28406 
 C                    -1.59761   2.72825   1.61459 
 C                    -1.92082   1.67508   2.47089 
 C                    -0.88486   1.04733   3.27429 
 C                    -1.16366  -0.37796   3.33251 
 C                    -0.11304  -1.29589   3.30286 
 C                    -0.22694  -2.50531   2.50478 
 C                     1.07553  -2.78324   1.92231 
 C                     1.16637  -3.29372   0.6269 
 C                     2.18003  -2.78824  -0.28406 
 C                     3.06202  -1.79198   0.13696 
 C                     3.39848  -0.69492  -0.75532 
 C                     2.83979  -0.63773  -2.03274 
 C                     2.37163   0.63128  -2.56468 
 C                     2.48095   1.7923   -1.79852 
 C                     1.38674   2.7488   -1.76811 
 C                     1.2921    3.28034  -0.4185 
 C                     0.04162   3.54724   0.14056 
 C                    -0.22459   3.19727   1.52586 
 C                     0.77005   2.5943    2.29672 
 C                     0.4331    1.49763   3.18874 
 C                     1.52739   0.54165   3.1583 
 C                     1.25961  -0.82661   3.21365 
 C                     1.99428  -1.74593   2.36078 
 C                     2.96762  -1.26055   1.4866 
 C                     3.24599   0.16495   1.42845 
 C                     2.5412    1.04781   2.24772 
 C                     2.0726    2.31647   1.7148 
 C                     2.32814   2.65223   0.38476 
 C                     3.06275   1.73267  -0.46802 
 C                     3.51263   0.51453   0.04299 
 
 NAtoms=     60 NQM=        0 NQMF=       0 NMMI=     60 NMMIF=      0
                NMic=       0 NMicF=      0.
                    Isotopes and Nuclear Properties:
 (Nuclear quadrupole moments (NQMom) in fm**2, nuclear magnetic moments (NMagM)
  in nuclear magnetons)

  Atom         1           2           3           4           5           6           7           8           9          10
 IAtWgt=          12          12          12          12          12          12          12          12          12          12
 AtmWgt=  12.0000000  12.0000000  12.0000000  12.0000000  12.0000000  12.0000000  12.0000000  12.0000000  12.0000000  12.0000000
 NucSpn=           0           0           0           0           0           0           0           0           0           0
 AtZEff=   0.0000000   0.0000000   0.0000000   0.0000000   0.0000000   0.0000000   0.0000000   0.0000000   0.0000000   0.0000000
 NQMom=    0.0000000   0.0000000   0.0000000   0.0000000   0.0000000   0.0000000   0.0000000   0.0000000   0.0000000   0.0000000
 NMagM=    0.0000000   0.0000000   0.0000000   0.0000000   0.0000000   0.0000000   0.0000000   0.0000000   0.0000000   0.0000000

  Atom        11          12          13          14          15          16          17          18          19          20
 IAtWgt=          12          12          12          12          12          12          12          12          12          12
 AtmWgt=  12.0000000  12.0000000  12.0000000  12.0000000  12.0000000  12.0000000  12.0000000  12.0000000  12.0000000  12.0000000
 NucSpn=           0           0           0           0           0           0           0           0           0           0
 AtZEff=   0.0000000   0.0000000   0.0000000   0.0000000   0.0000000   0.0000000   0.0000000   0.0000000   0.0000000   0.0000000
 NQMom=    0.0000000   0.0000000   0.0000000   0.0000000   0.0000000   0.0000000   0.0000000   0.0000000   0.0000000   0.0000000
 NMagM=    0.0000000   0.0000000   0.0000000   0.0000000   0.0000000   0.0000000   0.0000000   0.0000000   0.0000000   0.0000000

  Atom        21          22          23          24          25          26          27          28          29          30
 IAtWgt=          12          12          12          12          12          12          12          12          12          12
 AtmWgt=  12.0000000  12.0000000  12.0000000  12.0000000  12.0000000  12.0000000  12.0000000  12.0000000  12.0000000  12.0000000
 NucSpn=           0           0           0           0           0           0           0           0           0           0
 AtZEff=   0.0000000   0.0000000   0.0000000   0.0000000   0.0000000   0.0000000   0.0000000   0.0000000   0.0000000   0.0000000
 NQMom=    0.0000000   0.0000000   0.0000000   0.0000000   0.0000000   0.0000000   0.0000000   0.0000000   0.0000000   0.0000000
 NMagM=    0.0000000   0.0000000   0.0000000   0.0000000   0.0000000   0.0000000   0.0000000   0.0000000   0.0000000   0.0000000

  Atom        31          32          33          34          35          36          37          38          39          40
 IAtWgt=          12          12          12          12          12          12          12          12          12          12
 AtmWgt=  12.0000000  12.0000000  12.0000000  12.0000000  12.0000000  12.0000000  12.0000000  12.0000000  12.0000000  12.0000000
 NucSpn=           0           0           0           0           0           0           0           0           0           0
 AtZEff=   0.0000000   0.0000000   0.0000000   0.0000000   0.0000000   0.0000000   0.0000000   0.0000000   0.0000000   0.0000000
 NQMom=    0.0000000   0.0000000   0.0000000   0.0000000   0.0000000   0.0000000   0.0000000   0.0000000   0.0000000   0.0000000
 NMagM=    0.0000000   0.0000000   0.0000000   0.0000000   0.0000000   0.0000000   0.0000000   0.0000000   0.0000000   0.0000000

  Atom        41          42          43          44          45          46          47          48          49          50
 IAtWgt=          12          12          12          12          12          12          12          12          12          12
 AtmWgt=  12.0000000  12.0000000  12.0000000  12.0000000  12.0000000  12.0000000  12.0000000  12.0000000  12.0000000  12.0000000
 NucSpn=           0           0           0           0           0           0           0           0           0           0
 AtZEff=   0.0000000   0.0000000   0.0000000   0.0000000   0.0000000   0.0000000   0.0000000   0.0000000   0.0000000   0.0000000
 NQMom=    0.0000000   0.0000000   0.0000000   0.0000000   0.0000000   0.0000000   0.0000000   0.0000000   0.0000000   0.0000000
 NMagM=    0.0000000   0.0000000   0.0000000   0.0000000   0.0000000   0.0000000   0.0000000   0.0000000   0.0000000   0.0000000

  Atom        51          52          53          54          55          56          57          58          59          60
 IAtWgt=          12          12          12          12          12          12          12          12          12          12
 AtmWgt=  12.0000000  12.0000000  12.0000000  12.0000000  12.0000000  12.0000000  12.0000000  12.0000000  12.0000000  12.0000000
 NucSpn=           0           0           0           0           0           0           0           0           0           0
 AtZEff=   0.0000000   0.0000000   0.0000000   0.0000000   0.0000000   0.0000000   0.0000000   0.0000000   0.0000000   0.0000000
 NQMom=    0.0000000   0.0000000   0.0000000   0.0000000   0.0000000   0.0000000   0.0000000   0.0000000   0.0000000   0.0000000
 NMagM=    0.0000000   0.0000000   0.0000000   0.0000000   0.0000000   0.0000000   0.0000000   0.0000000   0.0000000   0.0000000
 Leave Link  101 at Fri Nov  4 08:45:07 2016, MaxMem= 2147483648 cpu:       6.0
 (Enter /apps/gaussian/g09_c01/g09/l103.exe)

 GradGradGradGradGradGradGradGradGradGradGradGradGradGradGradGradGradGrad
 Berny optimization.
 Initialization pass.
                           ----------------------------
                           !    Initial Parameters    !
                           ! (Angstroms and Degrees)  !
 --------------------------                            --------------------------
 ! Name  Definition              Value          Derivative Info.                !
 --------------------------------------------------------------------------------
 ! R1    R(1,2)                  1.3955         estimate D2E/DX2                !
 ! R2    R(1,6)                  1.4536         estimate D2E/DX2                !
 ! R3    R(1,9)                  1.4536         estimate D2E/DX2                !
 ! R4    R(2,3)                  1.4535         estimate D2E/DX2                !
 ! R5    R(2,12)                 1.4536         estimate D2E/DX2                !
 ! R6    R(3,4)                  1.3955         estimate D2E/DX2                !
 ! R7    R(3,14)                 1.4537         estimate D2E/DX2                !
 ! R8    R(4,5)                  1.4534         estimate D2E/DX2                !
 ! R9    R(4,17)                 1.4534         estimate D2E/DX2                !
 ! R10   R(5,6)                  1.3954         estimate D2E/DX2                !
 ! R11   R(5,19)                 1.4537         estimate D2E/DX2                !
 ! R12   R(6,7)                  1.4534         estimate D2E/DX2                !
 ! R13   R(7,8)                  1.4532         estimate D2E/DX2                !
 ! R14   R(7,21)                 1.3954         estimate D2E/DX2                !
 ! R15   R(8,9)                  1.4534         estimate D2E/DX2                !
 ! R16   R(8,24)                 1.3954         estimate D2E/DX2                !
 ! R17   R(9,10)                 1.3953         estimate D2E/DX2                !
 ! R18   R(10,11)                1.4534         estimate D2E/DX2                !
 ! R19   R(10,26)                1.4534         estimate D2E/DX2                !
 ! R20   R(11,12)                1.3954         estimate D2E/DX2                !
 ! R21   R(11,28)                1.4534         estimate D2E/DX2                !
 ! R22   R(12,13)                1.4536         estimate D2E/DX2                !
 ! R23   R(13,14)                1.4536         estimate D2E/DX2                !
 ! R24   R(13,30)                1.3956         estimate D2E/DX2                !
 ! R25   R(14,15)                1.3954         estimate D2E/DX2                !
 ! R26   R(15,16)                1.4534         estimate D2E/DX2                !
 ! R27   R(15,32)                1.4535         estimate D2E/DX2                !
 ! R28   R(16,17)                1.3953         estimate D2E/DX2                !
 ! R29   R(16,34)                1.4536         estimate D2E/DX2                !
 ! R30   R(17,18)                1.4537         estimate D2E/DX2                !
 ! R31   R(18,19)                1.4536         estimate D2E/DX2                !
 ! R32   R(18,36)                1.3954         estimate D2E/DX2                !
 ! R33   R(19,20)                1.3955         estimate D2E/DX2                !
 ! R34   R(20,21)                1.4534         estimate D2E/DX2                !
 ! R35   R(20,38)                1.4534         estimate D2E/DX2                !
 ! R36   R(21,22)                1.4536         estimate D2E/DX2                !
 ! R37   R(22,23)                1.3953         estimate D2E/DX2                !
 ! R38   R(22,39)                1.4536         estimate D2E/DX2                !
 ! R39   R(23,24)                1.4535         estimate D2E/DX2                !
 ! R40   R(23,42)                1.4535         estimate D2E/DX2                !
 ! R41   R(24,25)                1.4535         estimate D2E/DX2                !
 ! R42   R(25,26)                1.3955         estimate D2E/DX2                !
 ! R43   R(25,43)                1.4536         estimate D2E/DX2                !
 ! R44   R(26,27)                1.4535         estimate D2E/DX2                !
 ! R45   R(27,28)                1.4536         estimate D2E/DX2                !
 ! R46   R(27,45)                1.3954         estimate D2E/DX2                !
 ! R47   R(28,29)                1.3953         estimate D2E/DX2                !
 ! R48   R(29,30)                1.4536         estimate D2E/DX2                !
 ! R49   R(29,47)                1.4535         estimate D2E/DX2                !
 ! R50   R(30,31)                1.4537         estimate D2E/DX2                !
 ! R51   R(31,32)                1.3953         estimate D2E/DX2                !
 ! R52   R(31,48)                1.4536         estimate D2E/DX2                !
 ! R53   R(32,33)                1.4535         estimate D2E/DX2                !
 ! R54   R(33,34)                1.4535         estimate D2E/DX2                !
 ! R55   R(33,50)                1.3954         estimate D2E/DX2                !
 ! R56   R(34,35)                1.3954         estimate D2E/DX2                !
 ! R57   R(35,36)                1.4535         estimate D2E/DX2                !
 ! R58   R(35,52)                1.4534         estimate D2E/DX2                !
 ! R59   R(36,37)                1.4536         estimate D2E/DX2                !
 ! R60   R(37,38)                1.3953         estimate D2E/DX2                !
 ! R61   R(37,53)                1.4534         estimate D2E/DX2                !
 ! R62   R(38,39)                1.4536         estimate D2E/DX2                !
 ! R63   R(39,40)                1.3956         estimate D2E/DX2                !
 ! R64   R(40,41)                1.4536         estimate D2E/DX2                !
 ! R65   R(40,54)                1.4536         estimate D2E/DX2                !
 ! R66   R(41,42)                1.3954         estimate D2E/DX2                !
 ! R67   R(41,60)                1.4536         estimate D2E/DX2                !
 ! R68   R(42,43)                1.4534         estimate D2E/DX2                !
 ! R69   R(43,44)                1.3953         estimate D2E/DX2                !
 ! R70   R(44,45)                1.4537         estimate D2E/DX2                !
 ! R71   R(44,59)                1.4534         estimate D2E/DX2                !
 ! R72   R(45,46)                1.4536         estimate D2E/DX2                !
 ! R73   R(46,47)                1.3955         estimate D2E/DX2                !
 ! R74   R(46,58)                1.4537         estimate D2E/DX2                !
 ! R75   R(47,48)                1.4534         estimate D2E/DX2                !
 ! R76   R(48,49)                1.3954         estimate D2E/DX2                !
 ! R77   R(49,50)                1.4532         estimate D2E/DX2                !
 ! R78   R(49,57)                1.4534         estimate D2E/DX2                !
 ! R79   R(50,51)                1.4534         estimate D2E/DX2                !
 ! R80   R(51,52)                1.3953         estimate D2E/DX2                !
 ! R81   R(51,56)                1.4537         estimate D2E/DX2                !
 ! R82   R(52,53)                1.4534         estimate D2E/DX2                !
 ! R83   R(53,54)                1.3954         estimate D2E/DX2                !
 ! R84   R(54,55)                1.4536         estimate D2E/DX2                !
 ! R85   R(55,56)                1.3955         estimate D2E/DX2                !
 ! R86   R(55,60)                1.4535         estimate D2E/DX2                !
 ! R87   R(56,57)                1.4537         estimate D2E/DX2                !
 ! R88   R(57,58)                1.3954         estimate D2E/DX2                !
 ! R89   R(58,59)                1.4534         estimate D2E/DX2                !
 ! R90   R(59,60)                1.3955         estimate D2E/DX2                !
 ! A1    A(2,1,6)              119.9826         estimate D2E/DX2                !
 ! A2    A(2,1,9)              119.9817         estimate D2E/DX2                !
 ! A3    A(6,1,9)              107.9837         estimate D2E/DX2                !
 ! A4    A(1,2,3)              120.0075         estimate D2E/DX2                !
 ! A5    A(1,2,12)             120.0164         estimate D2E/DX2                !
 ! A6    A(3,2,12)             108.0072         estimate D2E/DX2                !
 ! A7    A(2,3,4)              119.9858         estimate D2E/DX2                !
 ! A8    A(2,3,14)             107.9952         estimate D2E/DX2                !
 ! A9    A(4,3,14)             119.989          estimate D2E/DX2                !
 ! A10   A(3,4,5)              120.0249         estimate D2E/DX2                !
 ! A11   A(3,4,17)             120.0065         estimate D2E/DX2                !
 ! A12   A(5,4,17)             107.989          estimate D2E/DX2                !
 ! A13   A(4,5,6)              119.9747         estimate D2E/DX2                !
 ! A14   A(4,5,19)             108.0221         estimate D2E/DX2                !
 ! A15   A(6,5,19)             120.0115         estimate D2E/DX2                !
 ! A16   A(1,6,5)              120.0244         estimate D2E/DX2                !
 ! A17   A(1,6,7)              107.9939         estimate D2E/DX2                !
 ! A18   A(5,6,7)              119.9828         estimate D2E/DX2                !
 ! A19   A(6,7,8)              108.0165         estimate D2E/DX2                !
 ! A20   A(6,7,21)             120.0146         estimate D2E/DX2                !
 ! A21   A(8,7,21)             119.9925         estimate D2E/DX2                !
 ! A22   A(7,8,9)              107.996          estimate D2E/DX2                !
 ! A23   A(7,8,24)             120.0108         estimate D2E/DX2                !
 ! A24   A(9,8,24)             120.012          estimate D2E/DX2                !
 ! A25   A(1,9,8)              108.0098         estimate D2E/DX2                !
 ! A26   A(1,9,10)             120.0041         estimate D2E/DX2                !
 ! A27   A(8,9,10)             119.9765         estimate D2E/DX2                !
 ! A28   A(9,10,11)            120.0038         estimate D2E/DX2                !
 ! A29   A(9,10,26)            120.0238         estimate D2E/DX2                !
 ! A30   A(11,10,26)           108.0136         estimate D2E/DX2                !
 ! A31   A(10,11,12)           120.0118         estimate D2E/DX2                !
 ! A32   A(10,11,28)           107.9947         estimate D2E/DX2                !
 ! A33   A(12,11,28)           120.0114         estimate D2E/DX2                !
 ! A34   A(2,12,11)            119.9821         estimate D2E/DX2                !
 ! A35   A(2,12,13)            107.9962         estimate D2E/DX2                !
 ! A36   A(11,12,13)           119.9873         estimate D2E/DX2                !
 ! A37   A(12,13,14)           108.0027         estimate D2E/DX2                !
 ! A38   A(12,13,30)           120.0046         estimate D2E/DX2                !
 ! A39   A(14,13,30)           119.9914         estimate D2E/DX2                !
 ! A40   A(3,14,13)            107.9987         estimate D2E/DX2                !
 ! A41   A(3,14,15)            120.0054         estimate D2E/DX2                !
 ! A42   A(13,14,15)           120.0119         estimate D2E/DX2                !
 ! A43   A(14,15,16)           119.9865         estimate D2E/DX2                !
 ! A44   A(14,15,32)           119.9912         estimate D2E/DX2                !
 ! A45   A(16,15,32)           108.0095         estimate D2E/DX2                !
 ! A46   A(15,16,17)           120.0182         estimate D2E/DX2                !
 ! A47   A(15,16,34)           107.9894         estimate D2E/DX2                !
 ! A48   A(17,16,34)           120.01           estimate D2E/DX2                !
 ! A49   A(4,17,16)            119.9945         estimate D2E/DX2                !
 ! A50   A(4,17,18)            108.0106         estimate D2E/DX2                !
 ! A51   A(16,17,18)           120.0033         estimate D2E/DX2                !
 ! A52   A(17,18,19)           107.9995         estimate D2E/DX2                !
 ! A53   A(17,18,36)           119.9829         estimate D2E/DX2                !
 ! A54   A(19,18,36)           119.9873         estimate D2E/DX2                !
 ! A55   A(5,19,18)            107.9789         estimate D2E/DX2                !
 ! A56   A(5,19,20)            119.9942         estimate D2E/DX2                !
 ! A57   A(18,19,20)           120.0169         estimate D2E/DX2                !
 ! A58   A(19,20,21)           119.9926         estimate D2E/DX2                !
 ! A59   A(19,20,38)           119.9904         estimate D2E/DX2                !
 ! A60   A(21,20,38)           107.9999         estimate D2E/DX2                !
 ! A61   A(7,21,20)            120.0044         estimate D2E/DX2                !
 ! A62   A(7,21,22)            120.0107         estimate D2E/DX2                !
 ! A63   A(20,21,22)           107.9937         estimate D2E/DX2                !
 ! A64   A(21,22,23)           119.9857         estimate D2E/DX2                !
 ! A65   A(21,22,39)           108.0128         estimate D2E/DX2                !
 ! A66   A(23,22,39)           120.0052         estimate D2E/DX2                !
 ! A67   A(22,23,24)           120.0059         estimate D2E/DX2                !
 ! A68   A(22,23,42)           120.01           estimate D2E/DX2                !
 ! A69   A(24,23,42)           107.9989         estimate D2E/DX2                !
 ! A70   A(8,24,23)            119.9944         estimate D2E/DX2                !
 ! A71   A(8,24,25)            120.0058         estimate D2E/DX2                !
 ! A72   A(23,24,25)           107.9948         estimate D2E/DX2                !
 ! A73   A(24,25,26)           119.9855         estimate D2E/DX2                !
 ! A74   A(24,25,43)           108.0078         estimate D2E/DX2                !
 ! A75   A(26,25,43)           119.9898         estimate D2E/DX2                !
 ! A76   A(10,26,25)           119.9963         estimate D2E/DX2                !
 ! A77   A(10,26,27)           107.9955         estimate D2E/DX2                !
 ! A78   A(25,26,27)           119.9993         estimate D2E/DX2                !
 ! A79   A(26,27,28)           107.9938         estimate D2E/DX2                !
 ! A80   A(26,27,45)           120.0135         estimate D2E/DX2                !
 ! A81   A(28,27,45)           119.989          estimate D2E/DX2                !
 ! A82   A(11,28,27)           108.0024         estimate D2E/DX2                !
 ! A83   A(11,28,29)           120.0039         estimate D2E/DX2                !
 ! A84   A(27,28,29)           120.0193         estimate D2E/DX2                !
 ! A85   A(28,29,30)           120.0004         estimate D2E/DX2                !
 ! A86   A(28,29,47)           119.9957         estimate D2E/DX2                !
 ! A87   A(30,29,47)           108.0195         estimate D2E/DX2                !
 ! A88   A(13,30,29)           119.9923         estimate D2E/DX2                !
 ! A89   A(13,30,31)           119.9909         estimate D2E/DX2                !
 ! A90   A(29,30,31)           107.9731         estimate D2E/DX2                !
 ! A91   A(30,31,32)           120.0046         estimate D2E/DX2                !
 ! A92   A(30,31,48)           108.0142         estimate D2E/DX2                !
 ! A93   A(32,31,48)           119.9864         estimate D2E/DX2                !
 ! A94   A(15,32,31)           120.01           estimate D2E/DX2                !
 ! A95   A(15,32,33)           107.9989         estimate D2E/DX2                !
 ! A96   A(31,32,33)           120.0064         estimate D2E/DX2                !
 ! A97   A(32,33,34)           107.9951         estimate D2E/DX2                !
 ! A98   A(32,33,50)           119.9942         estimate D2E/DX2                !
 ! A99   A(34,33,50)           120.0056         estimate D2E/DX2                !
 ! A100  A(16,34,33)           108.007          estimate D2E/DX2                !
 ! A101  A(16,34,35)           119.9882         estimate D2E/DX2                !
 ! A102  A(33,34,35)           119.9851         estimate D2E/DX2                !
 ! A103  A(34,35,36)           120.001          estimate D2E/DX2                !
 ! A104  A(34,35,52)           119.9987         estimate D2E/DX2                !
 ! A105  A(36,35,52)           107.9974         estimate D2E/DX2                !
 ! A106  A(18,36,35)           120.0145         estimate D2E/DX2                !
 ! A107  A(18,36,37)           119.9912         estimate D2E/DX2                !
 ! A108  A(35,36,37)           107.993          estimate D2E/DX2                !
 ! A109  A(36,37,38)           120.0197         estimate D2E/DX2                !
 ! A110  A(36,37,53)           108.003          estimate D2E/DX2                !
 ! A111  A(38,37,53)           120.0028         estimate D2E/DX2                !
 ! A112  A(20,38,37)           119.9945         estimate D2E/DX2                !
 ! A113  A(20,38,39)           108.0198         estimate D2E/DX2                !
 ! A114  A(37,38,39)           120.0001         estimate D2E/DX2                !
 ! A115  A(22,39,38)           107.9737         estimate D2E/DX2                !
 ! A116  A(22,39,40)           119.9908         estimate D2E/DX2                !
 ! A117  A(38,39,40)           119.9936         estimate D2E/DX2                !
 ! A118  A(39,40,41)           119.9911         estimate D2E/DX2                !
 ! A119  A(39,40,54)           120.0034         estimate D2E/DX2                !
 ! A120  A(41,40,54)           108.0024         estimate D2E/DX2                !
 ! A121  A(40,41,42)           120.013          estimate D2E/DX2                !
 ! A122  A(40,41,60)           107.9993         estimate D2E/DX2                !
 ! A123  A(42,41,60)           120.0052         estimate D2E/DX2                !
 ! A124  A(23,42,41)           119.99           estimate D2E/DX2                !
 ! A125  A(23,42,43)           108.0091         estimate D2E/DX2                !
 ! A126  A(41,42,43)           119.9854         estimate D2E/DX2                !
 ! A127  A(25,43,42)           107.9894         estimate D2E/DX2                !
 ! A128  A(25,43,44)           120.0105         estimate D2E/DX2                !
 ! A129  A(42,43,44)           120.0197         estimate D2E/DX2                !
 ! A130  A(43,44,45)           120.0013         estimate D2E/DX2                !
 ! A131  A(43,44,59)           119.9931         estimate D2E/DX2                !
 ! A132  A(45,44,59)           108.0091         estimate D2E/DX2                !
 ! A133  A(27,45,44)           119.9857         estimate D2E/DX2                !
 ! A134  A(27,45,46)           119.9908         estimate D2E/DX2                !
 ! A135  A(44,45,46)           108.0017         estimate D2E/DX2                !
 ! A136  A(45,46,47)           120.0152         estimate D2E/DX2                !
 ! A137  A(45,46,58)           107.9773         estimate D2E/DX2                !
 ! A138  A(47,46,58)           119.9938         estimate D2E/DX2                !
 ! A139  A(29,47,46)           119.99           estimate D2E/DX2                !
 ! A140  A(29,47,48)           108.0014         estimate D2E/DX2                !
 ! A141  A(46,47,48)           119.994          estimate D2E/DX2                !
 ! A142  A(31,48,47)           107.9918         estimate D2E/DX2                !
 ! A143  A(31,48,49)           120.0087         estimate D2E/DX2                !
 ! A144  A(47,48,49)           120.0024         estimate D2E/DX2                !
 ! A145  A(48,49,50)           119.9942         estimate D2E/DX2                !
 ! A146  A(48,49,57)           120.0152         estimate D2E/DX2                !
 ! A147  A(50,49,57)           108.017          estimate D2E/DX2                !
 ! A148  A(33,50,49)           120.0102         estimate D2E/DX2                !
 ! A149  A(33,50,51)           120.0112         estimate D2E/DX2                !
 ! A150  A(49,50,51)           107.9953         estimate D2E/DX2                !
 ! A151  A(50,51,52)           119.979          estimate D2E/DX2                !
 ! A152  A(50,51,56)           108.0108         estimate D2E/DX2                !
 ! A153  A(52,51,56)           120.0083         estimate D2E/DX2                !
 ! A154  A(35,52,51)           120.0204         estimate D2E/DX2                !
 ! A155  A(35,52,53)           108.0107         estimate D2E/DX2                !
 ! A156  A(51,52,53)           119.9997         estimate D2E/DX2                !
 ! A157  A(37,53,52)           107.996          estimate D2E/DX2                !
 ! A158  A(37,53,54)           120.0129         estimate D2E/DX2                !
 ! A159  A(52,53,54)           120.013          estimate D2E/DX2                !
 ! A160  A(40,54,53)           119.9871         estimate D2E/DX2                !
 ! A161  A(40,54,55)           107.9965         estimate D2E/DX2                !
 ! A162  A(53,54,55)           119.9842         estimate D2E/DX2                !
 ! A163  A(54,55,56)           120.0145         estimate D2E/DX2                !
 ! A164  A(54,55,60)           108.0062         estimate D2E/DX2                !
 ! A165  A(56,55,60)           120.0054         estimate D2E/DX2                !
 ! A166  A(51,56,55)           119.9802         estimate D2E/DX2                !
 ! A167  A(51,56,57)           107.9814         estimate D2E/DX2                !
 ! A168  A(55,56,57)           119.9814         estimate D2E/DX2                !
 ! A169  A(49,57,56)           107.9955         estimate D2E/DX2                !
 ! A170  A(49,57,58)           119.984          estimate D2E/DX2                !
 ! A171  A(56,57,58)           120.0273         estimate D2E/DX2                !
 ! A172  A(46,58,57)           120.0106         estimate D2E/DX2                !
 ! A173  A(46,58,59)           108.0224         estimate D2E/DX2                !
 ! A174  A(57,58,59)           119.9727         estimate D2E/DX2                !
 ! A175  A(44,59,58)           107.9895         estimate D2E/DX2                !
 ! A176  A(44,59,60)           120.0061         estimate D2E/DX2                !
 ! A177  A(58,59,60)           120.0243         estimate D2E/DX2                !
 ! A178  A(41,60,55)           107.9956         estimate D2E/DX2                !
 ! A179  A(41,60,59)           119.9904         estimate D2E/DX2                !
 ! A180  A(55,60,59)           119.9889         estimate D2E/DX2                !
 ! D1    D(6,1,2,3)             -0.0645         estimate D2E/DX2                !
 ! D2    D(6,1,2,12)           138.1751         estimate D2E/DX2                !
 ! D3    D(9,1,2,3)           -138.1692         estimate D2E/DX2                !
 ! D4    D(9,1,2,12)             0.0704         estimate D2E/DX2                !
 ! D5    D(2,1,6,5)              0.0421         estimate D2E/DX2                !
 ! D6    D(2,1,6,7)           -142.5738         estimate D2E/DX2                !
 ! D7    D(9,1,6,5)            142.5882         estimate D2E/DX2                !
 ! D8    D(9,1,6,7)             -0.0278         estimate D2E/DX2                !
 ! D9    D(2,1,9,8)            142.5745         estimate D2E/DX2                !
 ! D10   D(2,1,9,10)            -0.0262         estimate D2E/DX2                !
 ! D11   D(6,1,9,8)              0.0281         estimate D2E/DX2                !
 ! D12   D(6,1,9,10)          -142.5726         estimate D2E/DX2                !
 ! D13   D(1,2,3,4)              0.06           estimate D2E/DX2                !
 ! D14   D(1,2,3,14)           142.6386         estimate D2E/DX2                !
 ! D15   D(12,2,3,4)          -142.6107         estimate D2E/DX2                !
 ! D16   D(12,2,3,14)           -0.0321         estimate D2E/DX2                !
 ! D17   D(1,2,12,11)           -0.0781         estimate D2E/DX2                !
 ! D18   D(1,2,12,13)         -142.6503         estimate D2E/DX2                !
 ! D19   D(3,2,12,11)          142.5887         estimate D2E/DX2                !
 ! D20   D(3,2,12,13)            0.0165         estimate D2E/DX2                !
 ! D21   D(2,3,4,5)             -0.0316         estimate D2E/DX2                !
 ! D22   D(2,3,4,17)           138.1846         estimate D2E/DX2                !
 ! D23   D(14,3,4,5)          -138.174          estimate D2E/DX2                !
 ! D24   D(14,3,4,17)            0.0422         estimate D2E/DX2                !
 ! D25   D(2,3,14,13)            0.0354         estimate D2E/DX2                !
 ! D26   D(2,3,14,15)         -142.6129         estimate D2E/DX2                !
 ! D27   D(4,3,14,13)          142.6127         estimate D2E/DX2                !
 ! D28   D(4,3,14,15)           -0.0357         estimate D2E/DX2                !
 ! D29   D(3,4,5,6)              0.0092         estimate D2E/DX2                !
 ! D30   D(3,4,5,19)           142.6495         estimate D2E/DX2                !
 ! D31   D(17,4,5,6)          -142.6417         estimate D2E/DX2                !
 ! D32   D(17,4,5,19)           -0.0014         estimate D2E/DX2                !
 ! D33   D(3,4,17,16)           -0.0319         estimate D2E/DX2                !
 ! D34   D(3,4,17,18)         -142.6678         estimate D2E/DX2                !
 ! D35   D(5,4,17,16)          142.6271         estimate D2E/DX2                !
 ! D36   D(5,4,17,18)           -0.0088         estimate D2E/DX2                !
 ! D37   D(4,5,6,1)             -0.0137         estimate D2E/DX2                !
 ! D38   D(4,5,6,7)            138.1753         estimate D2E/DX2                !
 ! D39   D(19,5,6,1)          -138.2246         estimate D2E/DX2                !
 ! D40   D(19,5,6,7)            -0.0356         estimate D2E/DX2                !
 ! D41   D(4,5,19,18)            0.011          estimate D2E/DX2                !
 ! D42   D(4,5,19,20)         -142.6044         estimate D2E/DX2                !
 ! D43   D(6,5,19,18)          142.6351         estimate D2E/DX2                !
 ! D44   D(6,5,19,20)            0.0197         estimate D2E/DX2                !
 ! D45   D(1,6,7,8)              0.0168         estimate D2E/DX2                !
 ! D46   D(1,6,7,21)           142.6681         estimate D2E/DX2                !
 ! D47   D(5,6,7,8)           -142.6175         estimate D2E/DX2                !
 ! D48   D(5,6,7,21)             0.0338         estimate D2E/DX2                !
 ! D49   D(6,7,8,9)              0.0005         estimate D2E/DX2                !
 ! D50   D(6,7,8,24)           142.6524         estimate D2E/DX2                !
 ! D51   D(21,7,8,9)          -142.6605         estimate D2E/DX2                !
 ! D52   D(21,7,8,24)           -0.0086         estimate D2E/DX2                !
 ! D53   D(6,7,21,20)           -0.0153         estimate D2E/DX2                !
 ! D54   D(6,7,21,22)         -138.2158         estimate D2E/DX2                !
 ! D55   D(8,7,21,20)          138.2166         estimate D2E/DX2                !
 ! D56   D(8,7,21,22)            0.0161         estimate D2E/DX2                !
 ! D57   D(7,8,9,1)             -0.0177         estimate D2E/DX2                !
 ! D58   D(7,8,9,10)           142.5952         estimate D2E/DX2                !
 ! D59   D(24,8,9,1)          -142.6691         estimate D2E/DX2                !
 ! D60   D(24,8,9,10)           -0.0562         estimate D2E/DX2                !
 ! D61   D(7,8,24,23)           -0.0118         estimate D2E/DX2                !
 ! D62   D(7,8,24,25)         -138.1919         estimate D2E/DX2                !
 ! D63   D(9,8,24,23)          138.2048         estimate D2E/DX2                !
 ! D64   D(9,8,24,25)            0.0248         estimate D2E/DX2                !
 ! D65   D(1,9,10,11)           -0.0117         estimate D2E/DX2                !
 ! D66   D(1,9,10,26)          138.2457         estimate D2E/DX2                !
 ! D67   D(8,9,10,11)         -138.1907         estimate D2E/DX2                !
 ! D68   D(8,9,10,26)            0.0667         estimate D2E/DX2                !
 ! D69   D(9,10,11,12)           0.004          estimate D2E/DX2                !
 ! D70   D(9,10,11,28)         142.6545         estimate D2E/DX2                !
 ! D71   D(26,10,11,12)       -142.6836         estimate D2E/DX2                !
 ! D72   D(26,10,11,28)         -0.0331         estimate D2E/DX2                !
 ! D73   D(9,10,26,25)          -0.0472         estimate D2E/DX2                !
 ! D74   D(9,10,26,27)        -142.6577         estimate D2E/DX2                !
 ! D75   D(11,10,26,25)        142.6316         estimate D2E/DX2                !
 ! D76   D(11,10,26,27)          0.0211         estimate D2E/DX2                !
 ! D77   D(10,11,12,2)           0.0402         estimate D2E/DX2                !
 ! D78   D(10,11,12,13)        138.1763         estimate D2E/DX2                !
 ! D79   D(28,11,12,2)        -138.1747         estimate D2E/DX2                !
 ! D80   D(28,11,12,13)         -0.0385         estimate D2E/DX2                !
 ! D81   D(10,11,28,27)          0.0324         estimate D2E/DX2                !
 ! D82   D(10,11,28,29)       -142.6318         estimate D2E/DX2                !
 ! D83   D(12,11,28,27)        142.6831         estimate D2E/DX2                !
 ! D84   D(12,11,28,29)          0.0188         estimate D2E/DX2                !
 ! D85   D(2,12,13,14)           0.0054         estimate D2E/DX2                !
 ! D86   D(2,12,13,30)         142.6229         estimate D2E/DX2                !
 ! D87   D(11,12,13,14)       -142.5645         estimate D2E/DX2                !
 ! D88   D(11,12,13,30)          0.053          estimate D2E/DX2                !
 ! D89   D(12,13,14,3)          -0.0253         estimate D2E/DX2                !
 ! D90   D(12,13,14,15)        142.6203         estimate D2E/DX2                !
 ! D91   D(30,13,14,3)        -142.6486         estimate D2E/DX2                !
 ! D92   D(30,13,14,15)         -0.003          estimate D2E/DX2                !
 ! D93   D(12,13,30,29)         -0.0464         estimate D2E/DX2                !
 ! D94   D(12,13,30,31)       -138.1596         estimate D2E/DX2                !
 ! D95   D(14,13,30,29)        138.1425         estimate D2E/DX2                !
 ! D96   D(14,13,30,31)          0.0293         estimate D2E/DX2                !
 ! D97   D(3,14,15,16)           0.018          estimate D2E/DX2                !
 ! D98   D(3,14,15,32)         138.192          estimate D2E/DX2                !
 ! D99   D(13,14,15,16)       -138.1953         estimate D2E/DX2                !
 ! D100  D(13,14,15,32)         -0.0214         estimate D2E/DX2                !
 ! D101  D(14,15,16,17)         -0.0078         estimate D2E/DX2                !
 ! D102  D(14,15,16,34)        142.6412         estimate D2E/DX2                !
 ! D103  D(32,15,16,17)       -142.6107         estimate D2E/DX2                !
 ! D104  D(32,15,16,34)          0.0382         estimate D2E/DX2                !
 ! D105  D(14,15,32,31)          0.0193         estimate D2E/DX2                !
 ! D106  D(14,15,32,33)       -142.6258         estimate D2E/DX2                !
 ! D107  D(16,15,32,31)        142.6202         estimate D2E/DX2                !
 ! D108  D(16,15,32,33)         -0.0249         estimate D2E/DX2                !
 ! D109  D(15,16,17,4)           0.0142         estimate D2E/DX2                !
 ! D110  D(15,16,17,18)        138.2207         estimate D2E/DX2                !
 ! D111  D(34,16,17,4)        -138.198          estimate D2E/DX2                !
 ! D112  D(34,16,17,18)          0.0085         estimate D2E/DX2                !
 ! D113  D(15,16,34,33)         -0.037          estimate D2E/DX2                !
 ! D114  D(15,16,34,35)       -142.6281         estimate D2E/DX2                !
 ! D115  D(17,16,34,33)        142.6156         estimate D2E/DX2                !
 ! D116  D(17,16,34,35)          0.0244         estimate D2E/DX2                !
 ! D117  D(4,17,18,19)           0.0155         estimate D2E/DX2                !
 ! D118  D(4,17,18,36)         142.5934         estimate D2E/DX2                !
 ! D119  D(16,17,18,19)       -142.6164         estimate D2E/DX2                !
 ! D120  D(16,17,18,36)         -0.0385         estimate D2E/DX2                !
 ! D121  D(17,18,19,5)          -0.0164         estimate D2E/DX2                !
 ! D122  D(17,18,19,20)        142.589          estimate D2E/DX2                !
 ! D123  D(36,18,19,5)        -142.5923         estimate D2E/DX2                !
 ! D124  D(36,18,19,20)          0.0131         estimate D2E/DX2                !
 ! D125  D(17,18,36,35)          0.0355         estimate D2E/DX2                !
 ! D126  D(17,18,36,37)       -138.1493         estimate D2E/DX2                !
 ! D127  D(19,18,36,35)        138.1792         estimate D2E/DX2                !
 ! D128  D(19,18,36,37)         -0.0056         estimate D2E/DX2                !
 ! D129  D(5,19,20,21)          -0.0012         estimate D2E/DX2                !
 ! D130  D(5,19,20,38)         138.1627         estimate D2E/DX2                !
 ! D131  D(18,19,20,21)       -138.1675         estimate D2E/DX2                !
 ! D132  D(18,19,20,38)         -0.0037         estimate D2E/DX2                !
 ! D133  D(19,20,21,7)          -0.0006         estimate D2E/DX2                !
 ! D134  D(19,20,21,22)        142.6375         estimate D2E/DX2                !
 ! D135  D(38,20,21,7)        -142.597          estimate D2E/DX2                !
 ! D136  D(38,20,21,22)          0.0411         estimate D2E/DX2                !
 ! D137  D(19,20,38,37)         -0.0133         estimate D2E/DX2                !
 ! D138  D(19,20,38,39)       -142.6564         estimate D2E/DX2                !
 ! D139  D(21,20,38,37)        142.584          estimate D2E/DX2                !
 ! D140  D(21,20,38,39)         -0.059          estimate D2E/DX2                !
 ! D141  D(7,21,22,23)          -0.003          estimate D2E/DX2                !
 ! D142  D(7,21,22,39)         142.6278         estimate D2E/DX2                !
 ! D143  D(20,21,22,23)       -142.6383         estimate D2E/DX2                !
 ! D144  D(20,21,22,39)         -0.0075         estimate D2E/DX2                !
 ! D145  D(21,22,23,24)         -0.0174         estimate D2E/DX2                !
 ! D146  D(21,22,23,42)        138.1942         estimate D2E/DX2                !
 ! D147  D(39,22,23,24)       -138.2177         estimate D2E/DX2                !
 ! D148  D(39,22,23,42)         -0.0061         estimate D2E/DX2                !
 ! D149  D(21,22,39,38)         -0.0289         estimate D2E/DX2                !
 ! D150  D(21,22,39,40)       -142.5925         estimate D2E/DX2                !
 ! D151  D(23,22,39,38)        142.5933         estimate D2E/DX2                !
 ! D152  D(23,22,39,40)          0.0297         estimate D2E/DX2                !
 ! D153  D(22,23,24,8)           0.0249         estimate D2E/DX2                !
 ! D154  D(22,23,24,25)        142.6432         estimate D2E/DX2                !
 ! D155  D(42,23,24,8)        -142.6211         estimate D2E/DX2                !
 ! D156  D(42,23,24,25)         -0.0028         estimate D2E/DX2                !
 ! D157  D(22,23,42,41)         -0.0212         estimate D2E/DX2                !
 ! D158  D(22,23,42,43)       -142.6182         estimate D2E/DX2                !
 ! D159  D(24,23,42,41)        142.623          estimate D2E/DX2                !
 ! D160  D(24,23,42,43)          0.026          estimate D2E/DX2                !
 ! D161  D(8,24,25,26)          -0.0052         estimate D2E/DX2                !
 ! D162  D(8,24,25,43)         142.5918         estimate D2E/DX2                !
 ! D163  D(23,24,25,26)       -142.6185         estimate D2E/DX2                !
 ! D164  D(23,24,25,43)         -0.0214         estimate D2E/DX2                !
 ! D165  D(24,25,26,10)          0.0157         estimate D2E/DX2                !
 ! D166  D(24,25,26,27)        138.1902         estimate D2E/DX2                !
 ! D167  D(43,25,26,10)       -138.1515         estimate D2E/DX2                !
 ! D168  D(43,25,26,27)          0.023          estimate D2E/DX2                !
 ! D169  D(24,25,43,42)          0.0375         estimate D2E/DX2                !
 ! D170  D(24,25,43,44)       -142.6182         estimate D2E/DX2                !
 ! D171  D(26,25,43,42)        142.6327         estimate D2E/DX2                !
 ! D172  D(26,25,43,44)         -0.0231         estimate D2E/DX2                !
 ! D173  D(10,26,27,28)         -0.0011         estimate D2E/DX2                !
 ! D174  D(10,26,27,45)        142.6113         estimate D2E/DX2                !
 ! D175  D(25,26,27,28)       -142.6102         estimate D2E/DX2                !
 ! D176  D(25,26,27,45)          0.0022         estimate D2E/DX2                !
 ! D177  D(26,27,28,11)         -0.0194         estimate D2E/DX2                !
 ! D178  D(26,27,28,29)        142.6381         estimate D2E/DX2                !
 ! D179  D(45,27,28,11)       -142.6426         estimate D2E/DX2                !
 ! D180  D(45,27,28,29)          0.0149         estimate D2E/DX2                !
 ! D181  D(26,27,45,44)         -0.0271         estimate D2E/DX2                !
 ! D182  D(26,27,45,46)       -138.1847         estimate D2E/DX2                !
 ! D183  D(28,27,45,44)        138.1545         estimate D2E/DX2                !
 ! D184  D(28,27,45,46)         -0.0031         estimate D2E/DX2                !
 ! D185  D(11,28,29,30)         -0.0122         estimate D2E/DX2                !
 ! D186  D(11,28,29,47)        138.2087         estimate D2E/DX2                !
 ! D187  D(27,28,29,30)       -138.2414         estimate D2E/DX2                !
 ! D188  D(27,28,29,47)         -0.0205         estimate D2E/DX2                !
 ! D189  D(28,29,30,13)          0.0266         estimate D2E/DX2                !
 ! D190  D(28,29,30,31)        142.5866         estimate D2E/DX2                !
 ! D191  D(47,29,30,13)       -142.616          estimate D2E/DX2                !
 ! D192  D(47,29,30,31)         -0.056          estimate D2E/DX2                !
 ! D193  D(28,29,47,46)          0.0145         estimate D2E/DX2                !
 ! D194  D(28,29,47,48)       -142.5867         estimate D2E/DX2                !
 ! D195  D(30,29,47,46)        142.6592         estimate D2E/DX2                !
 ! D196  D(30,29,47,48)          0.0579         estimate D2E/DX2                !
 ! D197  D(13,30,31,32)         -0.0313         estimate D2E/DX2                !
 ! D198  D(13,30,31,48)        142.5933         estimate D2E/DX2                !
 ! D199  D(29,30,31,32)       -142.592          estimate D2E/DX2                !
 ! D200  D(29,30,31,48)          0.0326         estimate D2E/DX2                !
 ! D201  D(30,31,32,15)          0.0069         estimate D2E/DX2                !
 ! D202  D(30,31,32,33)        138.2193         estimate D2E/DX2                !
 ! D203  D(48,31,32,15)       -138.1962         estimate D2E/DX2                !
 ! D204  D(48,31,32,33)          0.0162         estimate D2E/DX2                !
 ! D205  D(30,31,48,47)          0.0032         estimate D2E/DX2                !
 ! D206  D(30,31,48,49)       -142.6235         estimate D2E/DX2                !
 ! D207  D(32,31,48,47)        142.6358         estimate D2E/DX2                !
 ! D208  D(32,31,48,49)          0.0091         estimate D2E/DX2                !
 ! D209  D(15,32,33,34)          0.002          estimate D2E/DX2                !
 ! D210  D(15,32,33,50)        142.6202         estimate D2E/DX2                !
 ! D211  D(31,32,33,34)       -142.6447         estimate D2E/DX2                !
 ! D212  D(31,32,33,50)         -0.0265         estimate D2E/DX2                !
 ! D213  D(32,33,34,16)          0.0216         estimate D2E/DX2                !
 ! D214  D(32,33,34,35)        142.6141         estimate D2E/DX2                !
 ! D215  D(50,33,34,16)       -142.5915         estimate D2E/DX2                !
 ! D216  D(50,33,34,35)          0.0011         estimate D2E/DX2                !
 ! D217  D(32,33,50,49)          0.0115         estimate D2E/DX2                !
 ! D218  D(32,33,50,51)       -138.2017         estimate D2E/DX2                !
 ! D219  D(34,33,50,49)        138.1916         estimate D2E/DX2                !
 ! D220  D(34,33,50,51)         -0.0215         estimate D2E/DX2                !
 ! D221  D(16,34,35,36)         -0.0274         estimate D2E/DX2                !
 ! D222  D(16,34,35,52)        138.1568         estimate D2E/DX2                !
 ! D223  D(33,34,35,36)       -138.19           estimate D2E/DX2                !
 ! D224  D(33,34,35,52)         -0.0058         estimate D2E/DX2                !
 ! D225  D(34,35,36,18)         -0.0027         estimate D2E/DX2                !
 ! D226  D(34,35,36,37)        142.6137         estimate D2E/DX2                !
 ! D227  D(52,35,36,18)       -142.6207         estimate D2E/DX2                !
 ! D228  D(52,35,36,37)         -0.0043         estimate D2E/DX2                !
 ! D229  D(34,35,52,51)          0.0321         estimate D2E/DX2                !
 ! D230  D(34,35,52,53)       -142.6311         estimate D2E/DX2                !
 ! D231  D(36,35,52,51)        142.6511         estimate D2E/DX2                !
 ! D232  D(36,35,52,53)         -0.0121         estimate D2E/DX2                !
 ! D233  D(18,36,37,38)         -0.0113         estimate D2E/DX2                !
 ! D234  D(18,36,37,53)        142.6458         estimate D2E/DX2                !
 ! D235  D(35,36,37,38)       -142.638          estimate D2E/DX2                !
 ! D236  D(35,36,37,53)          0.0191         estimate D2E/DX2                !
 ! D237  D(36,37,38,20)          0.0207         estimate D2E/DX2                !
 ! D238  D(36,37,38,39)        138.24           estimate D2E/DX2                !
 ! D239  D(53,37,38,20)       -138.2087         estimate D2E/DX2                !
 ! D240  D(53,37,38,39)          0.0106         estimate D2E/DX2                !
 ! D241  D(36,37,53,52)         -0.0266         estimate D2E/DX2                !
 ! D242  D(36,37,53,54)       -142.6829         estimate D2E/DX2                !
 ! D243  D(38,37,53,52)        142.638          estimate D2E/DX2                !
 ! D244  D(38,37,53,54)         -0.0184         estimate D2E/DX2                !
 ! D245  D(20,38,39,22)          0.0544         estimate D2E/DX2                !
 ! D246  D(20,38,39,40)        142.6167         estimate D2E/DX2                !
 ! D247  D(37,38,39,22)       -142.5862         estimate D2E/DX2                !
 ! D248  D(37,38,39,40)         -0.0239         estimate D2E/DX2                !
 ! D249  D(22,39,40,41)         -0.0258         estimate D2E/DX2                !
 ! D250  D(22,39,40,54)        138.1599         estimate D2E/DX2                !
 ! D251  D(38,39,40,41)       -138.142          estimate D2E/DX2                !
 ! D252  D(38,39,40,54)          0.0438         estimate D2E/DX2                !
 ! D253  D(39,40,41,42)         -0.0015         estimate D2E/DX2                !
 ! D254  D(39,40,41,60)        142.646          estimate D2E/DX2                !
 ! D255  D(54,40,41,42)       -142.6217         estimate D2E/DX2                !
 ! D256  D(54,40,41,60)          0.0258         estimate D2E/DX2                !
 ! D257  D(39,40,54,53)         -0.0516         estimate D2E/DX2                !
 ! D258  D(39,40,54,55)       -142.6255         estimate D2E/DX2                !
 ! D259  D(41,40,54,53)        142.5632         estimate D2E/DX2                !
 ! D260  D(41,40,54,55)         -0.0107         estimate D2E/DX2                !
 ! D261  D(40,41,42,23)          0.0251         estimate D2E/DX2                !
 ! D262  D(40,41,42,43)        138.1948         estimate D2E/DX2                !
 ! D263  D(60,41,42,23)       -138.1908         estimate D2E/DX2                !
 ! D264  D(60,41,42,43)         -0.0211         estimate D2E/DX2                !
 ! D265  D(40,41,60,55)         -0.0311         estimate D2E/DX2                !
 ! D266  D(40,41,60,59)       -142.6161         estimate D2E/DX2                !
 ! D267  D(42,41,60,55)        142.6198         estimate D2E/DX2                !
 ! D268  D(42,41,60,59)          0.0349         estimate D2E/DX2                !
 ! D269  D(23,42,43,25)         -0.0393         estimate D2E/DX2                !
 ! D270  D(23,42,43,44)        142.6124         estimate D2E/DX2                !
 ! D271  D(41,42,43,25)       -142.6382         estimate D2E/DX2                !
 ! D272  D(41,42,43,44)          0.0135         estimate D2E/DX2                !
 ! D273  D(25,43,44,45)         -0.0019         estimate D2E/DX2                !
 ! D274  D(25,43,44,59)        138.1966         estimate D2E/DX2                !
 ! D275  D(42,43,44,45)       -138.2171         estimate D2E/DX2                !
 ! D276  D(42,43,44,59)         -0.0185         estimate D2E/DX2                !
 ! D277  D(43,44,45,27)          0.027          estimate D2E/DX2                !
 ! D278  D(43,44,45,46)        142.6177         estimate D2E/DX2                !
 ! D279  D(59,44,45,27)       -142.5979         estimate D2E/DX2                !
 ! D280  D(59,44,45,46)         -0.0071         estimate D2E/DX2                !
 ! D281  D(43,44,59,58)       -142.6258         estimate D2E/DX2                !
 ! D282  D(43,44,59,60)          0.0323         estimate D2E/DX2                !
 ! D283  D(45,44,59,58)          0.0027         estimate D2E/DX2                !
 ! D284  D(45,44,59,60)        142.6608         estimate D2E/DX2                !
 ! D285  D(27,45,46,47)         -0.0029         estimate D2E/DX2                !
 ! D286  D(27,45,46,58)        142.5973         estimate D2E/DX2                !
 ! D287  D(44,45,46,47)       -142.5914         estimate D2E/DX2                !
 ! D288  D(44,45,46,58)          0.0088         estimate D2E/DX2                !
 ! D289  D(45,46,47,29)         -0.0027         estimate D2E/DX2                !
 ! D290  D(45,46,47,48)        138.1655         estimate D2E/DX2                !
 ! D291  D(58,46,47,29)       -138.1627         estimate D2E/DX2                !
 ! D292  D(58,46,47,48)          0.0055         estimate D2E/DX2                !
 ! D293  D(45,46,58,57)       -142.627          estimate D2E/DX2                !
 ! D294  D(45,46,58,59)         -0.0072         estimate D2E/DX2                !
 ! D295  D(47,46,58,57)         -0.0174         estimate D2E/DX2                !
 ! D296  D(47,46,58,59)        142.6025         estimate D2E/DX2                !
 ! D297  D(29,47,48,31)         -0.0378         estimate D2E/DX2                !
 ! D298  D(29,47,48,49)        142.5917         estimate D2E/DX2                !
 ! D299  D(46,47,48,31)       -142.6372         estimate D2E/DX2                !
 ! D300  D(46,47,48,49)         -0.0078         estimate D2E/DX2                !
 ! D301  D(31,48,49,50)         -0.0241         estimate D2E/DX2                !
 ! D302  D(31,48,49,57)        138.2121         estimate D2E/DX2                !
 ! D303  D(47,48,49,50)       -138.215          estimate D2E/DX2                !
 ! D304  D(47,48,49,57)          0.0212         estimate D2E/DX2                !
 ! D305  D(48,49,50,33)          0.0138         estimate D2E/DX2                !
 ! D306  D(48,49,50,51)        142.6626         estimate D2E/DX2                !
 ! D307  D(57,49,50,33)       -142.651          estimate D2E/DX2                !
 ! D308  D(57,49,50,51)         -0.0023         estimate D2E/DX2                !
 ! D309  D(48,49,57,56)       -142.6762         estimate D2E/DX2                !
 ! D310  D(48,49,57,58)         -0.0331         estimate D2E/DX2                !
 ! D311  D(50,49,57,56)         -0.0206         estimate D2E/DX2                !
 ! D312  D(50,49,57,58)        142.6225         estimate D2E/DX2                !
 ! D313  D(33,50,51,52)          0.0478         estimate D2E/DX2                !
 ! D314  D(33,50,51,56)        142.6726         estimate D2E/DX2                !
 ! D315  D(49,50,51,52)       -142.6005         estimate D2E/DX2                !
 ! D316  D(49,50,51,56)          0.0243         estimate D2E/DX2                !
 ! D317  D(50,51,52,35)         -0.0526         estimate D2E/DX2                !
 ! D318  D(50,51,52,53)        138.1879         estimate D2E/DX2                !
 ! D319  D(56,51,52,35)       -138.2436         estimate D2E/DX2                !
 ! D320  D(56,51,52,53)         -0.0032         estimate D2E/DX2                !
 ! D321  D(50,51,56,55)       -142.5764         estimate D2E/DX2                !
 ! D322  D(50,51,56,57)         -0.037          estimate D2E/DX2                !
 ! D323  D(52,51,56,55)          0.0355         estimate D2E/DX2                !
 ! D324  D(52,51,56,57)        142.5748         estimate D2E/DX2                !
 ! D325  D(35,52,53,37)          0.0239         estimate D2E/DX2                !
 ! D326  D(35,52,53,54)        142.6802         estimate D2E/DX2                !
 ! D327  D(51,52,53,37)       -142.6484         estimate D2E/DX2                !
 ! D328  D(51,52,53,54)          0.0079         estimate D2E/DX2                !
 ! D329  D(37,53,54,40)          0.0382         estimate D2E/DX2                !
 ! D330  D(37,53,54,55)        138.178          estimate D2E/DX2                !
 ! D331  D(52,53,54,40)       -138.1831         estimate D2E/DX2                !
 ! D332  D(52,53,54,55)         -0.0433         estimate D2E/DX2                !
 ! D333  D(40,54,55,56)        142.6508         estimate D2E/DX2                !
 ! D334  D(40,54,55,60)         -0.0085         estimate D2E/DX2                !
 ! D335  D(53,54,55,56)          0.0756         estimate D2E/DX2                !
 ! D336  D(53,54,55,60)       -142.5837         estimate D2E/DX2                !
 ! D337  D(54,55,56,51)         -0.0709         estimate D2E/DX2                !
 ! D338  D(54,55,56,57)       -138.1673         estimate D2E/DX2                !
 ! D339  D(60,55,56,51)        138.1608         estimate D2E/DX2                !
 ! D340  D(60,55,56,57)          0.0644         estimate D2E/DX2                !
 ! D341  D(54,55,60,41)          0.0245         estimate D2E/DX2                !
 ! D342  D(54,55,60,59)        142.6101         estimate D2E/DX2                !
 ! D343  D(56,55,60,41)       -142.6389         estimate D2E/DX2                !
 ! D344  D(56,55,60,59)         -0.0532         estimate D2E/DX2                !
 ! D345  D(51,56,57,49)          0.0356         estimate D2E/DX2                !
 ! D346  D(51,56,57,58)       -142.5883         estimate D2E/DX2                !
 ! D347  D(55,56,57,49)        142.5744         estimate D2E/DX2                !
 ! D348  D(55,56,57,58)         -0.0496         estimate D2E/DX2                !
 ! D349  D(49,57,58,46)          0.0308         estimate D2E/DX2                !
 ! D350  D(49,57,58,59)       -138.1762         estimate D2E/DX2                !
 ! D351  D(56,57,58,46)        138.229          estimate D2E/DX2                !
 ! D352  D(56,57,58,59)          0.022          estimate D2E/DX2                !
 ! D353  D(46,58,59,44)          0.0028         estimate D2E/DX2                !
 ! D354  D(46,58,59,60)       -142.6474         estimate D2E/DX2                !
 ! D355  D(57,58,59,44)        142.6393         estimate D2E/DX2                !
 ! D356  D(57,58,59,60)         -0.0108         estimate D2E/DX2                !
 ! D357  D(44,59,60,41)         -0.04           estimate D2E/DX2                !
 ! D358  D(44,59,60,55)       -138.19           estimate D2E/DX2                !
 ! D359  D(58,59,60,41)        138.1757         estimate D2E/DX2                !
 ! D360  D(58,59,60,55)          0.0256         estimate D2E/DX2                !
 --------------------------------------------------------------------------------
 Trust Radius=3.00D-01 FncErr=1.00D-07 GrdErr=1.00D-06
 Number of steps in this run=    360 maximum allowed number of steps=    360.
 GradGradGradGradGradGradGradGradGradGradGradGradGradGradGradGradGradGrad

 Leave Link  103 at Fri Nov  4 08:45:07 2016, MaxMem= 2147483648 cpu:       0.4
 (Enter /apps/gaussian/g09_c01/g09/l202.exe)
 Stoichiometry    C60
 Framework group  C1[X(C60)]
 Deg. of freedom   174
 Full point group                 C1      NOp   1
 Largest Abelian subgroup         C1      NOp   1
 Largest concise Abelian subgroup C1      NOp   1
                         Standard orientation:                         
 ---------------------------------------------------------------------
 Center     Atomic      Atomic             Coordinates (Angstroms)
 Number     Number       Type             X           Y           Z
 ---------------------------------------------------------------------
      1          6           0       -2.541355   -1.047275   -2.247706
      2          6           0       -3.245957   -0.164266   -1.428430
      3          6           0       -3.512787   -0.513788   -0.042998
      4          6           0       -3.063116   -1.732012    0.468003
      5          6           0       -2.328681   -2.651716   -0.384770
      6          6           0       -2.073104   -2.316079   -1.714841
      7          6           0       -0.770584   -2.594163   -2.296733
      8          6           0       -0.433400   -1.497551   -3.188736
      9          6           0       -1.527509   -0.541374   -3.158349
     10          6           0       -1.259403    0.826834   -3.213566
     11          6           0       -1.993941    1.746353   -2.360802
     12          6           0       -2.967370    1.261185   -1.486605
     13          6           0       -3.061639    1.792636   -0.136968
     14          6           0       -3.398352    0.695640    0.755329
     15          6           0       -2.839626    0.638326    2.032730
     16          6           0       -2.371769   -0.630770    2.564690
     17          6           0       -2.481314   -1.791751    1.798500
     18          6           0       -1.387366   -2.748570    1.768147
     19          6           0       -1.292789   -3.280041    0.418499
     20          6           0       -0.042373   -3.547236   -0.140545
     21          6           0        0.223925   -3.197257   -1.525825
     22          6           0        1.597052   -2.728571   -1.614582
     23          6           0        1.920484   -1.675488   -2.470890
     24          6           0        0.884642   -1.047514   -3.274283
     25          6           0        1.163739    0.377716   -3.332484
     26          6           0        0.113305    1.295863   -3.302902
     27          6           0        0.227449    2.505262   -2.504801
     28          6           0       -1.074976    2.783467   -1.922314
     29          6           0       -1.165684    3.293955   -0.626897
     30          6           0       -2.179451    2.788718    0.284057
     31          6           0       -1.597036    2.728582    1.614592
     32          6           0       -1.920467    1.675484    2.470893
     33          6           0       -0.884639    1.047511    3.274295
     34          6           0       -1.163742   -0.377719    3.332514
     35          6           0       -0.113313   -1.295861    3.302858
     36          6           0       -0.227468   -2.505264    2.504775
     37          6           0        1.074947   -2.783466    1.922305
     38          6           0        1.165675   -3.293961    0.626896
     39          6           0        2.179440   -2.788697   -0.284055
     40          6           0        3.061645   -1.792627    0.136963
     41          6           0        3.398329   -0.695629   -0.755322
     42          6           0        2.839651   -0.638323   -2.032736
     43          6           0        2.371760    0.630779   -2.564677
     44          6           0        2.481325    1.791779   -1.798523
     45          6           0        1.387317    2.748506   -1.768112
     46          6           0        1.292789    3.280071   -0.418503
     47          6           0        0.042369    3.547235    0.140556
     48          6           0       -0.223918    3.197315    1.525861
     49          6           0        0.770595    2.594134    2.296720
     50          6           0        0.433416    1.497540    3.188745
     51          6           0        1.527507    0.541332    3.158304
     52          6           0        1.259440   -0.826872    3.213645
     53          6           0        1.993915   -1.746348    2.360776
     54          6           0        2.967351   -1.261173    1.486598
     55          6           0        3.246020    0.164266    1.428445
     56          6           0        2.541416    1.047271    2.247723
     57          6           0        2.073086    2.316036    1.714804
     58          6           0        2.328693    2.651740    0.384756
     59          6           0        3.063112    1.732030   -0.468016
     60          6           0        3.512736    0.513795    0.042989
 ---------------------------------------------------------------------
 Rotational constants (GHZ):      0.0835508      0.0835465      0.0835389
 Leave Link  202 at Fri Nov  4 08:45:07 2016, MaxMem= 2147483648 cpu:       0.1
 (Enter /apps/gaussian/g09_c01/g09/l301.exe)
 Standard basis: 6-31G(d) (6D, 7F)
 Ernie: Thresh=  0.10000D-02 Tol=  0.10000D-05 Strict=F.
 The following finite field(s) will be applied:
 An electric field of              0.0032  0.0000  0.0000
 There are   900 symmetry adapted basis functions of A   symmetry.
 Integral buffers will be    131072 words long.
 Raffenetti 2 integral format.
 Two-electron integral symmetry is turned on.
   900 basis functions,  1680 primitive gaussians,   900 cartesian basis functions
   180 alpha electrons      180 beta electrons
       nuclear repulsion energy      8326.7047709571 Hartrees.
 IExCor=  402 DFT=T Ex+Corr=B3LYP ExCW=0 ScaHFX=  0.200000
 ScaDFX=  0.800000  0.720000  1.000000  0.810000 ScalE2=  1.000000  1.000000
 IRadAn=      0 IRanWt=     -1 IRanGd=            0 ICorTp=0
 NAtoms=   60 NActive=   60 NUniq=   60 SFac= 1.00D+00 NAtFMM=   60 NAOKFM=T Big=T
 Leave Link  301 at Fri Nov  4 08:45:08 2016, MaxMem= 2147483648 cpu:       1.1
 (Enter /apps/gaussian/g09_c01/g09/l302.exe)
 NPDir=0 NMtPBC=     1 NCelOv=     1 NCel=       1 NClECP=     1 NCelD=      1
         NCelK=      1 NCelE2=     1 NClLst=     1 CellRange=     0.0.
 One-electron integrals computed using PRISM.
 NBasis=   900 RedAO= T  NBF=   900
 NBsUse=   900 1.00D-06 NBFU=   900
 Precomputing XC quadrature grid using
 IXCGrd= 2 IRadAn=           0 IRanWt=          -1 IRanGd=           0 AccXCQ= 0.00D+00.
 NRdTot=    3720 NPtTot=      474000 NUsed=      500833 NTot=      500865
 NSgBfM=   798   798   804   817   829 NAtAll=    60    60.
 Leave Link  302 at Fri Nov  4 08:45:10 2016, MaxMem= 2147483648 cpu:      40.4
 (Enter /apps/gaussian/g09_c01/g09/l303.exe)
 DipDrv:  MaxL=1.
 The nuclear repulsion energy is now      8326.7047709571 hartrees.
 Leave Link  303 at Fri Nov  4 08:45:11 2016, MaxMem= 2147483648 cpu:       4.0
 (Enter /apps/gaussian/g09_c01/g09/l401.exe)
 Harris functional with IExCor=  402 diagonalized for initial guess.
 ExpMin= 1.69D-01 ExpMax= 3.05D+03 ExpMxC= 4.57D+02 IAcc=1 IRadAn=         1 AccDes= 0.00D+00
 HarFok:  IExCor=  402 AccDes= 0.00D+00 IRadAn=         1 IDoV= 1
 ScaDFX=  1.000000  1.000000  1.000000  1.000000
 FoFCou: FMM=F IPFlag=           0 FMFlag=      100000 FMFlg1=        2001
         NFxFlg=           0 DoJE=T BraDBF=F KetDBF=T FulRan=T
         Omega=  0.000000  0.000000  1.000000  0.000000  0.000000 ICntrl=     500 IOpCl=  0
         NMat0=    1 NMatS0=    1 NMatT0=    0 NMatD0=    1 NMtDS0=    0 NMtDT0=    0
         I1Cent=           4 NGrid=           0.
 Petite list used in FoFCou.
 Harris En= -2285.66504903957    
 Initial guess orbital symmetries:
       Occupied  (A) (A) (A) (A) (A) (A) (A) (A) (A) (A) (A) (A)
                 (A) (A) (A) (A) (A) (A) (A) (A) (A) (A) (A) (A)
                 (A) (A) (A) (A) (A) (A) (A) (A) (A) (A) (A) (A)
                 (A) (A) (A) (A) (A) (A) (A) (A) (A) (A) (A) (A)
                 (A) (A) (A) (A) (A) (A) (A) (A) (A) (A) (A) (A)
                 (A) (A) (A) (A) (A) (A) (A) (A) (A) (A) (A) (A)
                 (A) (A) (A) (A) (A) (A) (A) (A) (A) (A) (A) (A)
                 (A) (A) (A) (A) (A) (A) (A) (A) (A) (A) (A) (A)
                 (A) (A) (A) (A) (A) (A) (A) (A) (A) (A) (A) (A)
                 (A) (A) (A) (A) (A) (A) (A) (A) (A) (A) (A) (A)
                 (A) (A) (A) (A) (A) (A) (A) (A) (A) (A) (A) (A)
                 (A) (A) (A) (A) (A) (A) (A) (A) (A) (A) (A) (A)
                 (A) (A) (A) (A) (A) (A) (A) (A) (A) (A) (A) (A)
                 (A) (A) (A) (A) (A) (A) (A) (A) (A) (A) (A) (A)
                 (A) (A) (A) (A) (A) (A) (A) (A) (A) (A) (A) (A)
       Virtual   (A) (A) (A) (A) (A) (A) (A) (A) (A) (A) (A) (A)
                 (A) (A) (A) (A) (A) (A) (A) (A) (A) (A) (A) (A)
                 (A) (A) (A) (A) (A) (A) (A) (A) (A) (A) (A) (A)
                 (A) (A) (A) (A) (A) (A) (A) (A) (A) (A) (A) (A)
                 (A) (A) (A) (A) (A) (A) (A) (A) (A) (A) (A) (A)
                 (A) (A) (A) (A) (A) (A) (A) (A) (A) (A) (A) (A)
                 (A) (A) (A) (A) (A) (A) (A) (A) (A) (A) (A) (A)
                 (A) (A) (A) (A) (A) (A) (A) (A) (A) (A) (A) (A)
                 (A) (A) (A) (A) (A) (A) (A) (A) (A) (A) (A) (A)
                 (A) (A) (A) (A) (A) (A) (A) (A) (A) (A) (A) (A)
                 (A) (A) (A) (A) (A) (A) (A) (A) (A) (A) (A) (A)
                 (A) (A) (A) (A) (A) (A) (A) (A) (A) (A) (A) (A)
                 (A) (A) (A) (A) (A) (A) (A) (A) (A) (A) (A) (A)
                 (A) (A) (A) (A) (A) (A) (A) (A) (A) (A) (A) (A)
                 (A) (A) (A) (A) (A) (A) (A) (A) (A) (A) (A) (A)
                 (A) (A) (A) (A) (A) (A) (A) (A) (A) (A) (A) (A)
                 (A) (A) (A) (A) (A) (A) (A) (A) (A) (A) (A) (A)
                 (A) (A) (A) (A) (A) (A) (A) (A) (A) (A) (A) (A)
                 (A) (A) (A) (A) (A) (A) (A) (A) (A) (A) (A) (A)
                 (A) (A) (A) (A) (A) (A) (A) (A) (A) (A) (A) (A)
                 (A) (A) (A) (A) (A) (A) (A) (A) (A) (A) (A) (A)
                 (A) (A) (A) (A) (A) (A) (A) (A) (A) (A) (A) (A)
                 (A) (A) (A) (A) (A) (A) (A) (A) (A) (A) (A) (A)
                 (A) (A) (A) (A) (A) (A) (A) (A) (A) (A) (A) (A)
                 (A) (A) (A) (A) (A) (A) (A) (A) (A) (A) (A) (A)
                 (A) (A) (A) (A) (A) (A) (A) (A) (A) (A) (A) (A)
                 (A) (A) (A) (A) (A) (A) (A) (A) (A) (A) (A) (A)
                 (A) (A) (A) (A) (A) (A) (A) (A) (A) (A) (A) (A)
                 (A) (A) (A) (A) (A) (A) (A) (A) (A) (A) (A) (A)
                 (A) (A) (A) (A) (A) (A) (A) (A) (A) (A) (A) (A)
                 (A) (A) (A) (A) (A) (A) (A) (A) (A) (A) (A) (A)
                 (A) (A) (A) (A) (A) (A) (A) (A) (A) (A) (A) (A)
                 (A) (A) (A) (A) (A) (A) (A) (A) (A) (A) (A) (A)
                 (A) (A) (A) (A) (A) (A) (A) (A) (A) (A) (A) (A)
                 (A) (A) (A) (A) (A) (A) (A) (A) (A) (A) (A) (A)
                 (A) (A) (A) (A) (A) (A) (A) (A) (A) (A) (A) (A)
                 (A) (A) (A) (A) (A) (A) (A) (A) (A) (A) (A) (A)
                 (A) (A) (A) (A) (A) (A) (A) (A) (A) (A) (A) (A)
                 (A) (A) (A) (A) (A) (A) (A) (A) (A) (A) (A) (A)
                 (A) (A) (A) (A) (A) (A) (A) (A) (A) (A) (A) (A)
                 (A) (A) (A) (A) (A) (A) (A) (A) (A) (A) (A) (A)
                 (A) (A) (A) (A) (A) (A) (A) (A) (A) (A) (A) (A)
                 (A) (A) (A) (A) (A) (A) (A) (A) (A) (A) (A) (A)
                 (A) (A) (A) (A) (A) (A) (A) (A) (A) (A) (A) (A)
                 (A) (A) (A) (A) (A) (A) (A) (A) (A) (A) (A) (A)
                 (A) (A) (A) (A) (A) (A) (A) (A) (A) (A) (A) (A)
                 (A) (A) (A) (A) (A) (A) (A) (A) (A) (A) (A) (A)
                 (A) (A) (A) (A) (A) (A) (A) (A) (A) (A) (A) (A)
                 (A) (A) (A) (A) (A) (A) (A) (A) (A) (A) (A) (A)
                 (A) (A) (A) (A) (A) (A) (A) (A) (A) (A) (A) (A)
                 (A) (A) (A) (A) (A) (A) (A) (A) (A) (A) (A) (A)
                 (A) (A) (A) (A) (A) (A) (A) (A) (A) (A) (A) (A)
                 (A) (A) (A) (A) (A) (A) (A) (A) (A) (A) (A) (A)
                 (A) (A) (A) (A) (A) (A) (A) (A) (A) (A) (A) (A)
                 (A) (A) (A) (A) (A) (A) (A) (A) (A) (A) (A) (A)
                 (A) (A) (A) (A) (A) (A) (A) (A) (A) (A) (A) (A)
                 (A) (A) (A) (A) (A) (A) (A) (A) (A) (A) (A) (A)
                 (A) (A) (A) (A) (A) (A) (A) (A) (A) (A) (A) (A)
                 (A) (A) (A) (A) (A) (A) (A) (A) (A) (A) (A) (A)
                 (A) (A) (A) (A) (A) (A) (A) (A) (A) (A) (A) (A)
 The electronic state of the initial guess is 1-A.
 Leave Link  401 at Fri Nov  4 08:45:15 2016, MaxMem= 2147483648 cpu:      89.5
 (Enter /apps/gaussian/g09_c01/g09/l502.exe)
 Closed shell SCF:
 Requested convergence on RMS density matrix=1.00D-08 within 128 cycles.
 Requested convergence on MAX density matrix=1.00D-06.
 Requested convergence on             energy=1.00D-06.
 No special actions if energy rises.
 Using DIIS extrapolation, IDIIS=  1040.
 Integral symmetry usage will be decided dynamically.
       500280 words used for storage of precomputed grid.
 IEnd=     2973086 IEndB=     2973086 NGot=  2147483648 MDV=  2145338103
 LenX=  2145338103 LenY=  2144527203
 Fock matrices will be formed incrementally for  20 cycles.
 Integral accuracy reduced to 1.0D-05 until final iterations.

 Cycle   1  Pass 0  IDiag  1:
 FoFCou: FMM=T IPFlag=           0 FMFlag=      100000 FMFlg1=        2001
         NFxFlg=           0 DoJE=F BraDBF=F KetDBF=F FulRan=T
         Omega=  0.000000  0.000000  1.000000  0.000000  0.000000 ICntrl=       0 IOpCl=  0
         NMat0=    1 NMatS0=    1 NMatT0=    0 NMatD0=    1 NMtDS0=    0 NMtDT0=    0
[...]
 Alpha  occ. eigenvalues --   -0.41148  -0.41147  -0.41138  -0.41136  -0.41135
 Alpha  occ. eigenvalues --   -0.39927  -0.39925  -0.39924  -0.39922  -0.35822
 Alpha  occ. eigenvalues --   -0.35818  -0.35781  -0.35776  -0.35772  -0.35687
 Alpha  occ. eigenvalues --   -0.35683  -0.35667  -0.34621  -0.34608  -0.34607
 Alpha  occ. eigenvalues --   -0.34569  -0.34568  -0.33750  -0.33749  -0.33748
 Alpha  occ. eigenvalues --   -0.33747  -0.27009  -0.27006  -0.26997  -0.26995
 Alpha  occ. eigenvalues --   -0.26994  -0.26884  -0.26882  -0.26872  -0.26869
 Alpha  occ. eigenvalues --   -0.22002  -0.21990  -0.21989  -0.21987  -0.21986
 Alpha virt. eigenvalues --   -0.11876  -0.11873  -0.11853  -0.07522  -0.07504
 Alpha virt. eigenvalues --   -0.07499  -0.03755  -0.03657  -0.03617  -0.03095
 Alpha virt. eigenvalues --   -0.03090  -0.03034  -0.02993  -0.02867   0.02888
 Alpha virt. eigenvalues --    0.02895   0.02928   0.02931   0.02938   0.04834
 Alpha virt. eigenvalues --    0.04837   0.04860   0.04865   0.07284   0.07306
 Alpha virt. eigenvalues --    0.07376   0.07379   0.09392   0.09444   0.09456
 Alpha virt. eigenvalues --    0.13174   0.13178   0.13181   0.15854   0.15856
 Alpha virt. eigenvalues --    0.15858   0.15862   0.15882   0.18656   0.18660
 Alpha virt. eigenvalues --    0.18661   0.19417   0.19437   0.19442   0.20061
 Alpha virt. eigenvalues --    0.20067   0.20079   0.20080   0.23667   0.23673
 Alpha virt. eigenvalues --    0.23683   0.23687   0.23693   0.25785   0.25786
 Alpha virt. eigenvalues --    0.25790   0.25791   0.28917   0.28925   0.28929
 Alpha virt. eigenvalues --    0.28934   0.28937   0.31356   0.31357   0.31359
 Alpha virt. eigenvalues --    0.33060   0.33061   0.33063   0.36078   0.36082
 Alpha virt. eigenvalues --    0.36085   0.38541   0.38546   0.38548   0.38550
 Alpha virt. eigenvalues --    0.38559   0.44105   0.44113   0.44120   0.44196
 Alpha virt. eigenvalues --    0.45825   0.46407   0.46410   0.46416   0.46420
 Alpha virt. eigenvalues --    0.46697   0.46703   0.46704   0.46708   0.46840
 Alpha virt. eigenvalues --    0.46844   0.46854   0.46876   0.46878   0.47682
 Alpha virt. eigenvalues --    0.47690   0.47733   0.50215   0.50241   0.50252
 Alpha virt. eigenvalues --    0.50316   0.50326   0.50337   0.50467   0.50477
 Alpha virt. eigenvalues --    0.50799   0.50800   0.50854   0.52577   0.52579
 Alpha virt. eigenvalues --    0.52583   0.52586   0.52851   0.52865   0.52896
 Alpha virt. eigenvalues --    0.52899   0.53564   0.53577   0.53585   0.53836
 Alpha virt. eigenvalues --    0.53844   0.53846   0.53851   0.53855   0.54866
 Alpha virt. eigenvalues --    0.55123   0.55124   0.55197   0.55241   0.55249
 Alpha virt. eigenvalues --    0.55308   0.55308   0.55365   0.55375   0.55925
 Alpha virt. eigenvalues --    0.55925   0.56033   0.56305   0.56308   0.56318
 Alpha virt. eigenvalues --    0.56322   0.56328   0.57160   0.57166   0.57183
 Alpha virt. eigenvalues --    0.57622   0.57627   0.57630   0.57634   0.57641
 Alpha virt. eigenvalues --    0.61696   0.61698   0.61936   0.61937   0.62097
 Alpha virt. eigenvalues --    0.62383   0.62521   0.62523   0.62775   0.62776
 Alpha virt. eigenvalues --    0.63411   0.63412   0.63415   0.64244   0.64255
 Alpha virt. eigenvalues --    0.64261   0.64266   0.64788   0.64791   0.64880
 Alpha virt. eigenvalues --    0.64911   0.65024   0.65059   0.65069   0.65725
 Alpha virt. eigenvalues --    0.65741   0.65766   0.65774   0.65881   0.65897
 Alpha virt. eigenvalues --    0.65923   0.66075   0.66078   0.67790   0.67801
 Alpha virt. eigenvalues --    0.67822   0.67950   0.67952   0.67960   0.69285
 Alpha virt. eigenvalues --    0.69317   0.69320   0.69474   0.69480   0.69485
 Alpha virt. eigenvalues --    0.69491   0.69786   0.70246   0.70254   0.70268
 Alpha virt. eigenvalues --    0.70271   0.71548   0.71575   0.71578   0.74807
 Alpha virt. eigenvalues --    0.74809   0.74841   0.74847   0.74853   0.75090
 Alpha virt. eigenvalues --    0.75097   0.75100   0.77036   0.77040   0.77054
 Alpha virt. eigenvalues --    0.77059   0.78279   0.78288   0.78304   0.78305
 Alpha virt. eigenvalues --    0.78313   0.80396   0.80420   0.80463   0.80464
 Alpha virt. eigenvalues --    0.80658   0.80851   0.80885   0.81002   0.81006
 Alpha virt. eigenvalues --    0.81203   0.81324   0.81327   0.81448   0.81452
 Alpha virt. eigenvalues --    0.83004   0.83022   0.83029   0.86119   0.86122
 Alpha virt. eigenvalues --    0.86129   0.89765   0.89773   0.89819   0.89838
 Alpha virt. eigenvalues --    0.91334   0.91379   0.91398   0.91426   0.91427
 Alpha virt. eigenvalues --    0.93570   0.93572   0.93598   0.99745   0.99770
 Alpha virt. eigenvalues --    0.99771   1.00122   1.00169   1.00180   1.00438
 Alpha virt. eigenvalues --    1.00445   1.00458   1.02329   1.02338   1.02342
 Alpha virt. eigenvalues --    1.02349   1.03265   1.03273   1.03281   1.03294
 Alpha virt. eigenvalues --    1.03334   1.04409   1.04549   1.04551   1.04556
 Alpha virt. eigenvalues --    1.04559   1.04571   1.06171   1.06180   1.06185
 Alpha virt. eigenvalues --    1.06187   1.07119   1.07119   1.07134   1.07137
 Alpha virt. eigenvalues --    1.07140   1.12851   1.12861   1.12864   1.12988
 Alpha virt. eigenvalues --    1.13037   1.13055   1.13620   1.13622   1.13670
 Alpha virt. eigenvalues --    1.13708   1.13792   1.14111   1.14120   1.14158
 Alpha virt. eigenvalues --    1.14178   1.15500   1.15513   1.15622   1.16255
 Alpha virt. eigenvalues --    1.16355   1.16356   1.18515   1.18524   1.18547
 Alpha virt. eigenvalues --    1.18559   1.23584   1.23594   1.23598   1.23606
 Alpha virt. eigenvalues --    1.23609   1.23730   1.23737   1.23740   1.23746
 Alpha virt. eigenvalues --    1.25107   1.25119   1.25120   1.25128   1.25130
 Alpha virt. eigenvalues --    1.29644   1.29649   1.29655   1.29659   1.29673
 Alpha virt. eigenvalues --    1.34862   1.34878   1.34881   1.34890   1.34897
 Alpha virt. eigenvalues --    1.36811   1.36827   1.36830   1.38005   1.38008
 Alpha virt. eigenvalues --    1.38013   1.43796   1.43806   1.43810   1.44037
 Alpha virt. eigenvalues --    1.44048   1.44057   1.44066   1.44942   1.44945
 Alpha virt. eigenvalues --    1.44962   1.44968   1.44971   1.49911   1.49921
 Alpha virt. eigenvalues --    1.49925   1.51463   1.51521   1.51532   1.52359
 Alpha virt. eigenvalues --    1.52378   1.52457   1.52461   1.52469   1.52472
 Alpha virt. eigenvalues --    1.55462   1.55471   1.55473   1.55486   1.55492
 Alpha virt. eigenvalues --    1.61252   1.61260   1.61275   1.64433   1.64434
 Alpha virt. eigenvalues --    1.64435   1.64974   1.64983   1.65003   1.65012
 Alpha virt. eigenvalues --    1.67564   1.67576   1.67605   1.69079   1.69545
 Alpha virt. eigenvalues --    1.69554   1.69576   1.69583   1.69615   1.69618
 Alpha virt. eigenvalues --    1.69620   1.69624   1.69626   1.71852   1.71857
 Alpha virt. eigenvalues --    1.71881   1.72074   1.72075   1.72081   1.72086
 Alpha virt. eigenvalues --    1.73410   1.73413   1.73418   1.73418   1.73426
 Alpha virt. eigenvalues --    1.74927   1.74945   1.74950   1.74953   1.74958
 Alpha virt. eigenvalues --    1.78807   1.78811   1.78814   1.78817   1.78825
 Alpha virt. eigenvalues --    1.78988   1.78989   1.78990   1.78993   1.81421
 Alpha virt. eigenvalues --    1.81426   1.81428   1.85706   1.85708   1.85710
 Alpha virt. eigenvalues --    1.85716   1.88182   1.88188   1.88190   1.88193
 Alpha virt. eigenvalues --    1.88198   1.91139   1.91142   1.91150   1.93670
 Alpha virt. eigenvalues --    1.93674   1.93679   1.95324   1.95337   1.95346
 Alpha virt. eigenvalues --    1.96456   1.96463   1.96473   1.96480   1.96512
 Alpha virt. eigenvalues --    1.97743   1.97750   1.97761   1.97780   1.97787
 Alpha virt. eigenvalues --    1.98213   1.98217   1.98224   1.98237   1.98519
 Alpha virt. eigenvalues --    1.98527   1.98540   1.98834   1.98837   1.98847
 Alpha virt. eigenvalues --    1.98854   2.00266   2.00280   2.00290   2.01662
 Alpha virt. eigenvalues --    2.01667   2.01667   2.01673   2.02420   2.02427
 Alpha virt. eigenvalues --    2.02429   2.02431   2.02434   2.06610   2.06615
 Alpha virt. eigenvalues --    2.06624   2.06772   2.06775   2.06782   2.06786
 Alpha virt. eigenvalues --    2.06788   2.11962   2.11964   2.11970   2.16063
 Alpha virt. eigenvalues --    2.16067   2.16071   2.16076   2.16084   2.20837
 Alpha virt. eigenvalues --    2.20841   2.20843   2.20859   2.20867   2.20960
 Alpha virt. eigenvalues --    2.20964   2.20971   2.25352   2.25356   2.25367
 Alpha virt. eigenvalues --    2.25373   2.25378   2.28372   2.28378   2.28381
 Alpha virt. eigenvalues --    2.28385   2.28912   2.28919   2.28924   2.28935
 Alpha virt. eigenvalues --    2.29862   2.29869   2.29881   2.30504   2.30512
 Alpha virt. eigenvalues --    2.30516   2.30526   2.30533   2.35546   2.35555
 Alpha virt. eigenvalues --    2.35560   2.35567   2.35569   2.42267   2.42273
 Alpha virt. eigenvalues --    2.42280   2.43145   2.43154   2.43157   2.43159
 Alpha virt. eigenvalues --    2.43779   2.43801   2.43889   2.43896   2.44520
 Alpha virt. eigenvalues --    2.44606   2.44627   2.47249   2.47260   2.47272
 Alpha virt. eigenvalues --    2.47594   2.47597   2.47609   2.47615   2.47618
 Alpha virt. eigenvalues --    2.51592   2.51596   2.51601   2.54481   2.54496
 Alpha virt. eigenvalues --    2.54508   2.58299   2.58301   2.58317   2.58324
 Alpha virt. eigenvalues --    2.58325   2.58578   2.58584   2.58588   2.58596
 Alpha virt. eigenvalues --    2.58600   2.61099   2.61107   2.61112   2.62030
 Alpha virt. eigenvalues --    2.62033   2.62038   2.62045   2.62058   2.63348
 Alpha virt. eigenvalues --    2.63357   2.63358   2.65690   2.65702   2.65709
 Alpha virt. eigenvalues --    2.65713   2.65723   2.69728   2.69735   2.69738
 Alpha virt. eigenvalues --    2.69745   2.70868   2.70872   2.70874   2.70882
 Alpha virt. eigenvalues --    2.72607   2.72609   2.72611   2.74506   2.74510
 Alpha virt. eigenvalues --    2.74525   2.74534   2.79603   2.79606   2.79611
 Alpha virt. eigenvalues --    2.79615   2.79623   2.81939   2.81975   2.81990
 Alpha virt. eigenvalues --    2.83208   2.83212   2.83217   2.83225   2.83274
 Alpha virt. eigenvalues --    2.84330   2.84338   2.84340   2.85477   2.85486
 Alpha virt. eigenvalues --    2.85494   2.85496   2.85511   2.87505   2.87522
 Alpha virt. eigenvalues --    2.87529   2.90717   2.90724   2.90730   2.90735
 Alpha virt. eigenvalues --    2.94011   2.95478   2.95491   2.95495   2.95503
 Alpha virt. eigenvalues --    2.95511   2.99448   2.99451   2.99474   2.99476
 Alpha virt. eigenvalues --    3.00436   3.00446   3.00449   3.08220   3.08241
 Alpha virt. eigenvalues --    3.08244   3.08246   3.11166   3.11183   3.11196
 Alpha virt. eigenvalues --    3.11204   3.20404   3.20418   3.20434   3.26228
 Alpha virt. eigenvalues --    3.26235   3.26251   3.26261   3.26267   3.38418
 Alpha virt. eigenvalues --    3.38427   3.38430   3.38444   3.47271   3.47292
 Alpha virt. eigenvalues --    3.47316   3.52849   3.52850   3.52853   3.61966
 Alpha virt. eigenvalues --    4.02181   4.03299   4.03311   4.03364   4.05533
 Alpha virt. eigenvalues --    4.05536   4.05541   4.05552   4.05553   4.10283
 Alpha virt. eigenvalues --    4.10284   4.10287   4.13258   4.13263   4.13279
 Alpha virt. eigenvalues --    4.13291   4.19854   4.19855   4.19856   4.19858
 Alpha virt. eigenvalues --    4.19862   4.24931   4.24935   4.24942   4.24950
 Alpha virt. eigenvalues --    4.33449   4.33451   4.33454   4.38047   4.38051
 Alpha virt. eigenvalues --    4.38055   4.38056   4.38064   4.49893   4.49898
 Alpha virt. eigenvalues --    4.49904   4.57169   4.57179   4.57183   4.65134
 Alpha virt. eigenvalues --    4.65138   4.65140   4.65146   4.65148   4.81463
 Alpha virt. eigenvalues --    4.81474   4.81490   4.81503   4.91328   4.91335
 Alpha virt. eigenvalues --    4.91338   4.91342   4.91350   5.12008   5.12021
 Alpha virt. eigenvalues --    5.12023   5.12032   5.27060   5.27069   5.27082
          Condensed to atoms (all electrons):
 Mulliken atomic charges:
              1
     1  C    0.006085
     2  C    0.009486
     3  C    0.009399
     4  C    0.007133
     5  C    0.004707
     6  C    0.003897
     7  C    0.000984
     8  C    0.000714
     9  C    0.003929
    10  C    0.004252
    11  C    0.006667
    12  C    0.009268
    13  C    0.009694
    14  C    0.009993
    15  C    0.008190
    16  C    0.006230
    17  C    0.005339
    18  C    0.002294
    19  C    0.001869
    20  C   -0.002621
    21  C   -0.003080
    22  C   -0.006308
    23  C   -0.006321
    24  C   -0.003404
    25  C   -0.003171
    26  C    0.001239
    27  C    0.001484
    28  C    0.004688
    29  C    0.005693
    30  C    0.007708
    31  C    0.006121
    32  C    0.006208
    33  C    0.003301
    34  C    0.003371
    35  C   -0.001181
    36  C   -0.001467
    37  C   -0.004905
    38  C   -0.005576
    39  C   -0.007844
    40  C   -0.009917
    41  C   -0.009915
    42  C   -0.007908
    43  C   -0.006180
    44  C   -0.005391
    45  C   -0.002092
    46  C   -0.001766
    47  C    0.002844
    48  C    0.003065
    49  C   -0.000770
    50  C   -0.000700
    51  C   -0.003818
    52  C   -0.004433
    53  C   -0.006359
    54  C   -0.009509
    55  C   -0.009213
    56  C   -0.005969
    57  C   -0.004452
    58  C   -0.004821
    59  C   -0.006784
    60  C   -0.009981
 Sum of Mulliken atomic charges =   0.00000
 Mulliken charges with hydrogens summed into heavy atoms:
              1
     1  C    0.006085
     2  C    0.009486
     3  C    0.009399
     4  C    0.007133
     5  C    0.004707
     6  C    0.003897
     7  C    0.000984
     8  C    0.000714
     9  C    0.003929
    10  C    0.004252
    11  C    0.006667
    12  C    0.009268
    13  C    0.009694
    14  C    0.009993
    15  C    0.008190
    16  C    0.006230
    17  C    0.005339
    18  C    0.002294
    19  C    0.001869
    20  C   -0.002621
    21  C   -0.003080
    22  C   -0.006308
    23  C   -0.006321
    24  C   -0.003404
    25  C   -0.003171
    26  C    0.001239
    27  C    0.001484
    28  C    0.004688
    29  C    0.005693
    30  C    0.007708
    31  C    0.006121
    32  C    0.006208
    33  C    0.003301
    34  C    0.003371
    35  C   -0.001181
    36  C   -0.001467
    37  C   -0.004905
    38  C   -0.005576
    39  C   -0.007844
    40  C   -0.009917
    41  C   -0.009915
    42  C   -0.007908
    43  C   -0.006180
    44  C   -0.005391
    45  C   -0.002092
    46  C   -0.001766
    47  C    0.002844
    48  C    0.003065
    49  C   -0.000770
    50  C   -0.000700
    51  C   -0.003818
    52  C   -0.004433
    53  C   -0.006359
    54  C   -0.009509
    55  C   -0.009213
    56  C   -0.005969
    57  C   -0.004452
    58  C   -0.004821
    59  C   -0.006784
    60  C   -0.009981
 Sum of Mulliken charges with hydrogens summed into heavy atoms =   0.00000
 Electronic spatial extent (au):  <R**2>=          16923.5294
 Charge=              0.0000 electrons
 Dipole moment (field-independent basis, Debye):
    X=             -3.8392    Y=             -0.0038    Z=              0.0009  Tot=              3.8392
 Quadrupole moment (field-independent basis, Debye-Ang):
   XX=           -324.1415   YY=           -324.1182   ZZ=           -324.1158
   XY=             -0.0015   XZ=              0.0026   YZ=             -0.0021
 Traceless Quadrupole moment (field-independent basis, Debye-Ang):
   XX=             -0.0163   YY=              0.0070   ZZ=              0.0093
   XY=             -0.0015   XZ=              0.0026   YZ=             -0.0021
 Octapole moment (field-independent basis, Debye-Ang**2):
  XXX=            -46.7312  YYY=             -0.0498  ZZZ=              0.0313  XYY=            -15.5720
  XXY=             -0.0180  XXZ=              0.0101  XZZ=            -15.5667  YZZ=             -0.0181
  YYZ=              0.0111  XYZ=             -0.0003
 Hexadecapole moment (field-independent basis, Debye-Ang**3):
 XXXX=          -8519.2892 YYYY=          -8515.5226 ZZZZ=          -8514.2368 XXXY=             -0.0248
 XXXZ=              0.0621 YYYX=             -0.0285 YYYZ=             -0.0231 ZZZX=             -0.0079
 ZZZY=             -0.0169 XXYY=          -2839.1140 XXZZ=          -2838.8718 YYZZ=          -2838.2862
 XXYZ=             -0.0145 YYXZ=              0.0127 ZZXY=              0.0026
 N-N= 8.326925362708D+03 E-N=-2.194496587621D+04  KE= 2.264956716928D+03
 No NMR shielding tensors so no spin-rotation constants.
 Leave Link  601 at Fri Nov  4 09:56:05 2016, MaxMem= 2147483648 cpu:      22.0
 (Enter /apps/gaussian/g09_c01/g09/l9999.exe)
 1\1\GINC-CX1-13-19-4\FOpt\RB3LYP\6-31G(d)\C60\JMF02\04-Nov-2016\0\\#p 
 opt scf=verytight b3lyp/6-31g* Field=x+32\\Ain't no field like an E-fi
 eld, with a bit of relaxation.\\0,1\C,-2.5414061408,-1.0477852613,-2.2
 476247802\C,-3.244907832,-0.1649424254,-1.4279420145\C,-3.5116825529,-
 0.5143967867,-0.0427375391\C,-3.0635799286,-1.732736386,0.4681754051\C
 ,-2.3285987379,-2.651387945,-0.384931854\C,-2.0731392678,-2.3162041142
 ,-1.7150589801\C,-0.7700151357,-2.5936614163,-2.2960766353\C,-0.433153
 0328,-1.4968041575,-3.1880629473\C,-1.5278415823,-0.5414754947,-3.1578
 939052\C,-1.2600432487,0.8265635215,-3.2129950656\C,-1.9946264315,1.74
 61321523,-2.3608806076\C,-2.9663233582,1.2601351309,-1.486022004\C,-3.
 0615906095,1.7918771332,-0.1369118763\C,-3.3982288601,0.6950089197,0.7
 552472679\C,-2.8402026528,0.6379813657,2.0324227432\C,-2.371847945,-0.
 6307864893,2.5639935532\C,-2.4813804275,-1.7919224432,1.7983462715\C,-
 1.3863092142,-2.7470722289,1.7675196359\C,-1.2917285762,-3.2781281275,
 0.4179773006\C,-0.0416251017,-3.5476449474,-0.1407864662\C,0.224669161
 1,-3.1981185225,-1.5260230545\C,1.5974328958,-2.7287863085,-1.61497537
 67\C,1.9206680642,-1.6749372879,-2.4712916688\C,0.8852151486,-1.047248
 486,-3.2752875848\C,1.1637732913,0.3778386005,-3.3329130767\C,0.112707
 5175,1.2950746329,-3.3011649441\C,0.2262962969,2.5047466376,-2.5035944
 261\C,-1.0765192195,2.783840567,-1.9227618638\C,-1.166881223,3.2930978
 011,-0.6269865805\C,-2.1801500183,2.7879083787,0.2840169943\C,-1.59805
 64071,2.7279991736,1.6144576114\C,-1.9212668471,1.6749598967,2.4704685
 891\C,-0.8848914922,1.0473812339,3.2731812116\C,-1.1631836666,-0.37792
 79703,3.3304101853\C,-0.113071199,-1.2963995239,3.3035436079\C,-0.2268
 088013,-2.5056203962,2.5054240942\C,1.0755448236,-2.7838898139,1.92294
 19605\C,1.1663784755,-3.2945586318,0.6268965136\C,2.1797308499,-2.7881
 275277,-0.2841496345\C,3.0630452367,-1.792259069,0.1370949054\C,3.3998
 41081,-0.6951088586,-0.7552071381\C,2.8397424272,-0.6376834234,-2.0326
 465614\C,2.3717850223,0.6311918951,-2.5655218314\C,2.4802818717,1.7922
 876799,-1.7985796403\C,1.3865120937,2.7488678215,-1.767939873\C,1.2923
 421724,3.2804338629,-0.4187747729\C,0.041478799,3.5450793116,0.1401119
 371\C,-0.2248586479,3.1959131047,1.5255112183\C,0.7700151278,2.5951079
 322,2.2977982352\C,0.4330934124,1.4983306343,3.1896435904\C,1.52686123
 98,0.5418133437,3.1581724688\C,1.2594224399,-0.8268498899,3.2143957409
 \C,1.9939249002,-1.7457154603,2.3607156913\C,2.9683564707,-1.260537012
 9,1.4867185263\C,3.2475581742,0.1649013648,1.4286825928\C,2.540293873,
 1.0476533514,2.2468495218\C,2.0722802483,2.3169404774,1.7152113568\C,2
 .3282092449,2.6526810028,0.3848264215\C,3.0624399657,1.7325280689,-0.4
 680384377\C,3.514011833,0.5144394095,0.0430229887\\Version=EM64L-G09Re
 vC.01\State=1-A\HF=-2286.176608\RMSD=5.542e-09\RMSF=1.089e-04\Dipole=-
 1.4667551,0.3599311,-0.0243549\Quadrupole=-0.0102808,0.0044085,0.00587
 23,0.0057008,-0.0021823,-0.0012736\PG=C01 [X(C60)]\\@


 SCIENCE AND PEACE WILL TRIUMPH OVER IGNORANCE AND WAR

                          -- PASTEUR
 Job cpu time:  0 days 23 hours 34 minutes 58.6 seconds.
 File lengths (MBytes):  RWF=    506 Int=      0 D2E=      0 Chk=     59 Scr=      1
 Normal termination of Gaussian 09 at Fri Nov  4 09:56:05 2016.
